------------------------------------------------------------
          Invoking FHI-aims ...

          When using FHI-aims, please cite the following reference:

            Volker Blum, Ralf Gehrke, Felix Hanke, Paula Havu,
            Ville Havu, Xinguo Ren, Karsten Reuter, and Matthias Scheffler,
            'Ab Initio Molecular Simulations with Numeric Atom-Centered Orbitals',
            Computer Physics Communications 180, 2175-2196 (2009)

          In addition, many other developments in FHI-aims are likely important for
          your particular application. A partial list of references is given at the end of
          this file. Thank you for giving credit to the authors of these developments.

          For any questions about FHI-aims, please visit our slack channel at

            https://fhi-aims.slack.com

          and our main development and support site at

            https://aims-git.rz-berlin.mpg.de .

          The latter site, in particular, has a wiki to collect information, as well
          as an issue tracker to log discussions, suggest improvements, and report issues
          or bugs. https://aims-git.rz-berlin.mpg.de is also the main development site
          of the project and all new and updated code versions can be obtained there.
          Please send an email to aims-coordinators@fhi-berlin.mpg.de and we will add
          you to these sites. They are for you and everyone is welcome there.

------------------------------------------------------------



  Date     :  20230702, Time     :  135502.903
  Time zero on CPU 1             :   0.131005600000000E+01  s.
  Internal wall clock time zero  :           457538102.903  s.

  FHI-aims created a unique identifier for this run for later identification
  aims_uuid : FC2BA964-353A-48BD-A9DB-753D178A41E4

  Build configuration of the current instance of FHI-aims
  -------------------------------------------------------
  FHI-aims version      : 220619
  Commit number         : ad4f367e7
  CMake host system     : Linux-5.4.0-122-generic
  CMake version         : 3.16.3
  Fortran compiler      : /opt/intel/oneapi/mpi/2021.5.1/bin/mpiifort (Intel) version 20.2.5.20211109
  Fortran compiler flags: -O3 -ip -fp-model precise
  C compiler            : /opt/intel/oneapi/compiler/2022.0.2/linux/bin/intel64/icc (Intel) version 20.2.5.20211109
  C compiler flags      : -O3 -ip -fp-model precise -std=gnu99
  ELPA2 kernel          : AVX2
  Using MPI
  Using ScaLAPACK
  Using LibXC
  Using i-PI
  Using RLSY
  Linking against: /opt/intel/oneapi/mkl/2022.1.0/lib/intel64/libmkl_intel_lp64.so
                   /opt/intel/oneapi/mkl/2022.1.0/lib/intel64/libmkl_sequential.so
                   /opt/intel/oneapi/mkl/2022.1.0/lib/intel64/libmkl_core.so
                   /opt/intel/oneapi/mkl/2022.1.0/lib/intel64/libmkl_blacs_intelmpi_lp64.so
                   /opt/intel/oneapi/mkl/2022.1.0/lib/intel64/libmkl_scalapack_lp64.so

  Using        4 parallel tasks.
  Task        0 on host c21000127-lnx reporting.
  Task        1 on host c21000127-lnx reporting.
  Task        2 on host c21000127-lnx reporting.
  Task        3 on host c21000127-lnx reporting.

  Performing system and environment tests:
  *** Environment variable OMP_NUM_THREADS is not set
  *** For performance reasons you might want to set it to 1
  | Checking for ScaLAPACK...
  | Testing pdtran()...
  | All pdtran() tests passed.

  Obtaining array dimensions for all initial allocations:
  
  -----------------------------------------------------------------------
  Parsing control.in (first pass over file, find array dimensions only).
  The contents of control.in will be repeated verbatim below
  unless switched off by setting 'verbatim_writeout .false.' .
  in the first line of control.in .
  -----------------------------------------------------------------------
  
  #===============================================================================
  # FHI-aims file: ./control.in
  # Created using the Atomic Simulation Environment (ASE)
  # Sun Jul  2 13:55:00 2023
  #===============================================================================
  xc                                 pw-lda
  k_grid                             4 4 4
  sc_accuracy_rho                    1e-06
  relativistic                       atomic_zora scalar
  output_level                       MD_light
  compute_forces                     .true.
  #===============================================================================
  
  ################################################################################
  #
  #  FHI-aims code project
  #  VB, Fritz-Haber Institut, 2009
  #
  #  Suggested "light" defaults for Cd atom (to be pasted into control.in file)
  #  Be sure to double-check any results obtained with these settings for post-processing,
  #  e.g., with the "tight" defaults and larger basis sets.
  #
  ################################################################################
    species        Cd
  #     global species definitions
      nucleus             48
      mass                112.411
  #
      l_hartree           4
  #
      cut_pot             3.5  1.5  1.0
      basis_dep_cutoff    1e-4
  #
      radial_base         62 5.0
      radial_multiplier   1
      angular_grids specified
        division   0.5937   50
        division   1.0282  110
        division   1.3769  194
        division   1.7301  302
  #      division   2.2341  434
  #      division   2.2741  590
  #      division   2.3152  770
  #      division   2.3574  974
  #      division   2.9077 1202
  #      outer_grid  974
        outer_grid  302
  ################################################################################
  #
  #  Definition of "minimal" basis
  #
  ################################################################################
  #     valence basis states
      valence      5  s   2.
      valence      4  p   6.
      valence      4  d  10.
  #     ion occupancy
      ion_occ     5  s   1.
      ion_occ     4  p   6.
      ion_occ     4  d   9.
  ################################################################################
  #
  #  Suggested additional basis functions. For production calculations,
  #  uncomment them one after another (the most important basis functions are
  #  listed first).
  #
  #  Constructed for dimers: 2.15 A, 2.50 A, 3.10 A, 4.00 A, 5.00 A
  #
  ################################################################################
  #  "First tier" - max. impr. -224.92  meV, min. impr. -5.81 meV
       hydro 2 p 1.6
       hydro 4 f 7
       hydro 3 s 2.8
       hydro 3 p 5.2
  #     hydro 5 g 10.0
       hydro 3 d 3.8
  #  "Second tier" - max. impr. -2.57  meV, min. impr. -0.38 meV
  #     hydro 4 f 17.6
  #     hydro 6 h 13.6
  #     hydro 3 p 7
  #     hydro 5 s 17.6
  #     hydro 3 d 3.4
  #  "Third tier" - max. impr. -0.37 meV, min. impr. -0.09 meV
  #     hydro 3 p 2.4
  #     hydro 4 f 6.4
  #     hydro 4 s 4
  #     hydro 5 f 15.6
  #     hydro 5 g 10.8
  #     hydro 2 p 6.4
  #     hydro 6 h 12.8
  #     hydro 5 d 9.0
  #  Further functions: -0.05 meV and below
  #     hydro 5 d 5.8
  ################################################################################
  #
  #  FHI-aims code project
  #  VB, Fritz-Haber Institut, 2009
  #
  #  Suggested "light" defaults for Te atom (to be pasted into control.in file)
  #  Be sure to double-check any results obtained with these settings for post-processing,
  #  e.g., with the "tight" defaults and larger basis sets.
  #
  #  2020/09/22 Added f function to light settings to improve bulk properties of In-I.
  #
  ################################################################################
    species        Te
  #     global species definitions
      nucleus             52
      mass                127.60
  #
      l_hartree           4
  #
      cut_pot             3.5  1.5  1.0
      basis_dep_cutoff    1e-4
  #
      radial_base         64 5.0
      radial_multiplier   1
      angular_grids specified
        division   0.1259  110
        division   0.8959  194
        division   0.9864  302
  #      division   1.1196  434
  #      division   1.1922  590
  #      division   1.3098  770
  #      division   2.9404  974
  #      outer_grid  974
        outer_grid  302
  ################################################################################
  #
  #  Definition of "minimal" basis
  #
  ################################################################################
  #     valence basis states
      valence      5  s   2.
      valence      5  p   4.
      valence      4  d  10.
  #     ion occupancy
      ion_occ     5  s   1.
      ion_occ     5  p   3.
      ion_occ     4  d  10.
  ################################################################################
  #
  #  Suggested additional basis functions. For production calculations,
  #  uncomment them one after another (the most important basis functions are
  #  listed first).
  #
  #  Constructed for dimers: 2.15 A, 2.55 A, 3.10 A, 3.60 A, 4.50 A
  #
  ################################################################################
  #  "First tier" - max. impr. -217.34  meV, min. impr. -22.97 meV
       hydro 3 d 3.7
       hydro 4 f 6
       hydro 3 p 2.7
       ionic 5 s auto
  #  "Second tier" - max. impr. -17.80 meV, min. impr. -0.57 meV
  #     hydro 5 g 9
  #     hydro 4 f 16.4
  #     hydro 6 h 12
  #     hydro 4 p 6.4
  #     hydro 5 f 32.4
  #     hydro 4 d 5
  #     hydro 3 s 2.8
  #  "Third tier" - max. impr. -0.51 meV, min. impr. -0.06 meV
  #     hydro 5 f 8.4
  #     hydro 5 g 11.6
  #     hydro 6 h 15.6
  #     hydro 2 p 1.7
  #     hydro 4 d 9.6
  #     hydro 1 s 6.4
  #  Further functions that fell out of the optimization: -0.17 meV and below
  #     hydro 4 f 33.6
  #     hydro 5 d 6.8
  #     hydro 5 f 16
  
  -----------------------------------------------------------------------
  Completed first pass over input file control.in .
  -----------------------------------------------------------------------
  
  
  -----------------------------------------------------------------------
  Parsing geometry.in (first pass over file, find array dimensions only).
  The contents of geometry.in will be repeated verbatim below
  unless switched off by setting 'verbatim_writeout .false.' .
  in the first line of geometry.in .
  -----------------------------------------------------------------------
  
  #=======================================================
  # FHI-aims file: ./geometry.in
  # Created using the Atomic Simulation Environment (ASE)
  # Sun Jul  2 13:55:00 2023
  #=======================================================
  lattice_vector -0.0000034000000000 6.4845870400000001 6.4845888000000000
  lattice_vector 6.4845944800000002 0.0000045400000000 6.4845932399999997
  lattice_vector 6.4846015799999996 6.4845985600000002 0.0000063400000000
  atom_frac -0.0010876571220131 0.0000031600000000 0.9999972250000000 Cd
  atom_frac 0.5000027849999999 0.0000031600000000 0.9999972250000000 Cd
  atom_frac 0.0000027850000001 0.5000031600000000 0.9999972249999998 Cd
  atom_frac 0.5000027849999996 0.5000031600000003 0.9999972249999995 Cd
  atom_frac 0.0000027850000000 0.0000031600000000 0.4999972249999999 Cd
  atom_frac 0.5000027849999998 0.0000031600000001 0.4999972249999999 Cd
  atom_frac 0.0000027850000000 0.5000031600000001 0.4999972249999997 Cd
  atom_frac 0.5000027849999998 0.5000031600000000 0.4999972249999999 Cd
  atom_frac 0.3749972150000001 0.3749968399999999 0.3750027749999998 Te
  atom_frac 0.8749972149999999 0.3749968400000002 0.3750027749999997 Te
  atom_frac 0.3749972150000002 0.8749968400000004 0.3750027749999995 Te
  atom_frac 0.8749972150000002 0.8749968400000003 0.3750027749999991 Te
  atom_frac 0.3749972150000003 0.3749968399999999 0.8750027749999999 Te
  atom_frac 0.8749972149999999 0.3749968400000002 0.8750027749999997 Te
  atom_frac 0.3749972150000000 0.8749968400000003 0.8750027749999993 Te
  atom_frac 0.8749972149999998 0.8749968400000003 0.8750027749999995 Te
  
  -----------------------------------------------------------------------
  Completed first pass over input file geometry.in .
  -----------------------------------------------------------------------
  

  Basic array size parameters:
  | Number of species                 :        2
  | Number of atoms                   :       16
  | Number of lattice vectors         :        3
  | Max. basis fn. angular momentum   :        3
  | Max. atomic/ionic basis occupied n:        5
  | Max. number of basis fn. types    :        3
  | Max. radial fns per species/type  :       11
  | Max. logarithmic grid size        :     1454
  | Max. radial integration grid size :       64
  | Max. angular integration grid size:      302
  | Max. angular grid division number :        8
  | Radial grid for Hartree potential :     1454
  | Number of spin channels           :        1

------------------------------------------------------------
          Reading file control.in.
------------------------------------------------------------
  XC: Using Perdew-Wang parametrisation of Ceperley-Alder LDA.
  Found k-point grid:         4         4         4
  Convergence accuracy of self-consistent charge density:  0.1000E-05
  Scalar relativistic treatment of kinetic energy: on-site free-atom approximation to ZORA.
  Requested output level: MD_light
  Forces will be computed.
 
  Reading configuration options for species Cd                  .
  | Found nuclear charge :  48.0000
  | Found atomic mass :    112.411000000000      amu
  | Found l_max for Hartree potential  :   4
  | Found cutoff potl. onset [A], width [A], scale factor :    3.50000    1.50000    1.00000
  | Threshold for basis-dependent cutoff potential is   0.100000E-03
  | Found data for basic radial integration grid :    62 points, outermost radius =    5.000 A
  | Found multiplier for basic radial grid :   1
  | Found angular grid specification: user-specified.
  | Specified grid contains     5 separate shells.
  | Check grid settings after all constraints further below.
  | Found free-atom valence shell :  5 s   2.000
  | Found free-atom valence shell :  4 p   6.000
  | Found free-atom valence shell :  4 d  10.000
  | Found free-ion valence shell :  5 s   1.000
  | Found free-ion valence shell :  4 p   6.000
  | Found free-ion valence shell :  4 d   9.000
  | Found hydrogenic basis function :  2 p   1.600
  | Found hydrogenic basis function :  4 f   7.000
  | Found hydrogenic basis function :  3 s   2.800
  | Found hydrogenic basis function :  3 p   5.200
  | Found hydrogenic basis function :  3 d   3.800
  Species Cd                  : Missing cutoff potential type.
  Defaulting to exp(1/x)/(1-x)^2 type cutoff potential.
  Species Cd: No 'logarithmic' tag. Using default grid for free atom:
  | Default logarithmic grid data [bohr] : 0.1000E-03 0.1000E+03 0.1012E+01
  Species Cd: On-site basis accuracy parameter (for Gram-Schmidt orthonormalisation) not specified.
  Using default value basis_acc =  0.1000000E-03.
  Species Cd                  : Using default innermost maximum threshold i_radial=  2 for radial functions.
  Species Cd                  : Default cutoff onset for free atom density etc. : 0.35000000E+01 AA.
  Species Cd                  : Basic radial grid will be enhanced according to radial_multiplier =   1, to contain    62 grid points.
 
  Reading configuration options for species Te                  .
  | Found nuclear charge :  52.0000
  | Found atomic mass :    127.600000000000      amu
  | Found l_max for Hartree potential  :   4
  | Found cutoff potl. onset [A], width [A], scale factor :    3.50000    1.50000    1.00000
  | Threshold for basis-dependent cutoff potential is   0.100000E-03
  | Found data for basic radial integration grid :    64 points, outermost radius =    5.000 A
  | Found multiplier for basic radial grid :   1
  | Found angular grid specification: user-specified.
  | Specified grid contains     4 separate shells.
  | Check grid settings after all constraints further below.
  | Found free-atom valence shell :  5 s   2.000
  | Found free-atom valence shell :  5 p   4.000
  | Found free-atom valence shell :  4 d  10.000
  | Found free-ion valence shell :  5 s   1.000
  | Found free-ion valence shell :  5 p   3.000
  | Found free-ion valence shell :  4 d  10.000
  | Found hydrogenic basis function :  3 d   3.700
  | Found hydrogenic basis function :  4 f   6.000
  | Found hydrogenic basis function :  3 p   2.700
  | Found ionic basis function :  5 s , default cutoff radius.
  Species Te                  : Missing cutoff potential type.
  Defaulting to exp(1/x)/(1-x)^2 type cutoff potential.
  Species Te: No 'logarithmic' tag. Using default grid for free atom:
  | Default logarithmic grid data [bohr] : 0.1000E-03 0.1000E+03 0.1012E+01
  | Will include ionic basis functions of  2.0-fold positive Te                   ion.
  Species Te: On-site basis accuracy parameter (for Gram-Schmidt orthonormalisation) not specified.
  Using default value basis_acc =  0.1000000E-03.
  Species Te                  : Using default innermost maximum threshold i_radial=  2 for radial functions.
  Species Te                  : Default cutoff onset for free atom density etc. : 0.35000000E+01 AA.
  Species Te                  : Basic radial grid will be enhanced according to radial_multiplier =   1, to contain    64 grid points.
 
  Finished reading input file 'control.in'.
 
------------------------------------------------------------


------------------------------------------------------------
          Reading geometry description geometry.in.
------------------------------------------------------------
  | The smallest distance between any two atoms is         2.79980049 AA.
  | The first atom of this pair is atom number                      1 .
  | The second atom of this pair is atom number                    16 .
  | Wigner-Seitz cell of the first atom image           0     0     0 .
  | (The Wigner-Seitz cell of the second atom is 0 0 0  by definition.)

  Symmetry information by spglib:
  | Precision set to  0.1E-04
  | Number of Operations  : 1
  | Space group           : 1
  | International         : P1 X
  | Schoenflies           : C1^1
  Input structure read successfully.
  The structure contains       16 atoms,  and a total of        800.000 electrons.

  Input geometry:
  | Unit cell:
  |       -0.00000340        6.48458704        6.48458880
  |        6.48459448        0.00000454        6.48459324
  |        6.48460158        6.48459856        0.00000634
  | Atomic structure:
  |       Atom                x [A]            y [A]            z [A]
  |    1: Species Cd            6.48460408        6.47752756       -0.00702618
  |    2: Species Cd            6.48460238        9.72689214        3.24233929
  |    3: Species Cd            9.72690132        6.48460089        3.24234151
  |    4: Species Cd            9.72689962        9.72689441        6.48463591
  |    5: Species Cd            3.24230329        3.24229934        0.00004172
  |    6: Species Cd            3.24230159        6.48459286        3.24233612
  |    7: Species Cd            6.48460053        3.24230161        3.24233834
  |    8: Species Cd            6.48459883        6.48459513        6.48463274
  |    9: Species Te            4.86344475        4.86344624        4.86340709
  |   10: Species Te            4.86344305        8.10573976        8.10570149
  |   11: Species Te            8.10574199        4.86344851        8.10570371
  |   12: Species Te            8.10574029        8.10574203       11.34799811
  |   13: Species Te            8.10574554        8.10574552        4.86341026
  |   14: Species Te            8.10574384       11.34803904        8.10570466
  |   15: Species Te           11.34804278        8.10574779        8.10570688
  |   16: Species Te           11.34804108       11.34804131       11.34800128

  Lattice parameters for 3D lattice (in Angstroms) :     9.170592    9.170601    9.170609
  Angle(s) between unit vectors (in degrees)       :    59.999934   59.999997   59.999993


  Quantities derived from the lattice vectors (in Angstrom^-1):
  | Reciprocal lattice vector 1: -0.484471  0.484471  0.484471
  | Reciprocal lattice vector 2:  0.484470 -0.484471  0.484471
  | Reciprocal lattice vector 3:  0.484470  0.484470 -0.484470
  | Unit cell volume                               :   0.545354E+03  Angstrom^3

 
  Finished reading input file 'geometry.in'.
 

 
  Consistency checks for stacksize environment parameter are next.
 
  | Maximum stacksize for task 0: unlimited
  | Maximum stacksize for task 1: unlimited
  | Maximum stacksize for task 2: unlimited
  | Maximum stacksize for task 3: unlimited
  | Current stacksize for task 0: unlimited
  | Current stacksize for task 1: unlimited
  | Current stacksize for task 2: unlimited
  | Current stacksize for task 3: unlimited
 
  Consistency checks for the contents of control.in are next.
 
  MPI_IN_PLACE appears to work with this MPI implementation.
  | Keeping use_mpi_in_place .true. (see manual).
  Target number of points in a grid batch is not set. Defaulting to  100
  Method for grid partitioning is not set. Defaulting to parallel hash+maxmin partitioning.
  Batch size limit is not set. Defaulting to    200
  By default, will store active basis functions for each batch.
  If in need of memory, prune_basis_once .false. can be used to disable this option.
  communication_type for Hartree potential was not specified.
  Defaulting to calc_hartree .
  Defaulting to Pulay charge density mixer.
  Pulay mixer: Number of relevant iterations not set.
  Defaulting to    8 iterations.
  Pulay mixer: Number of initial linear mixing iterations not set.
  Defaulting to    0 iterations.
  Work space size for distributed Hartree potential not set.
  Defaulting to   0.200000E+03 MB.
  Mixing parameter for charge density mixing has not been set.
  Using default: charge_mix_param =     0.0500.
  The mixing parameter will be adjusted in iteration number     2 of the first full s.c.f. cycle only.
  Algorithm-dependent basis array size parameters:
  | n_max_pulay                         :        8
  Maximum number of self-consistency iterations not provided.
  Presetting  1000 iterations.
  Presetting      1001 iterations before the initial mixing cycle
  is restarted anyway using the sc_init_iter criterion / keyword.
  Presetting a factor      1.000 between actual scf density residual
  and density convergence criterion sc_accuracy_rho below which sc_init_iter
  takes no effect.
  Geometry relaxation not requested: no relaxation will be performed.
  Forces evaluation will include force correction term due to incomplete self-consistency (default).
  Force calculation: scf convergence accuracy of forces not set.
  Defaulting to 'sc_accuracy_forces not_checked'.
  Handling of forces: Unphysical translation and rotation will be removed from forces.
  No accuracy limit for integral partition fn. given. Defaulting to  0.1000E-14.
  No threshold value for u(r) in integrations given. Defaulting to  0.1000E-05.
  No occupation type (smearing scheme) given. Defaulting to Gaussian broadening, width =  0.1000E-01 eV.
  The width will be adjusted in iteration number     2 of the first full s.c.f. cycle only.
  S.C.F. convergence parameters will be adjusted in iteration number     2 of the first full s.c.f. cycle only.
  No accuracy for occupation numbers given. Defaulting to  0.1000E-12.
  No threshold value for occupation numbers given. Defaulting to  0.0000E+00.
  No accuracy for fermi level given. Defaulting to  0.1000E-19.
  Maximum # of iterations to find E_F not set. Defaulting to  200.
  Preferred method for the eigenvalue solver ('KS_method') not specified in 'control.in'.
  Defaulting to serial version, LAPACK (via ELSI), since more k-points than CPUs available.
  Will not use alltoall communication since running on < 1024 CPUs.
  Threshold for basis singularities not set.
  Default threshold for basis singularities:  0.1000E-04
  partition_type (choice of integration weights) for integrals was not specified.
  | Using a version of the partition function of Stratmann and coworkers ('stratmann_sparse').
  | At each grid point, the set of atoms used to build the partition table is smoothly restricted to
  | only those atoms whose free-atom density would be non-zero at that grid point.
  Partitioning for Hartree potential was not defined. Using partition_type for integrals.
  | Adjusted default value of keyword multip_moments_threshold to:       0.10000000E-11
  | This value may affect high angular momentum components of the Hartree potential in periodic systems.
  Spin handling was not defined in control.in. Defaulting to unpolarized case.
  Angular momentum expansion for Kerker preconditioner not set explicitly.
  | Using default value of   0
  No explicit requirement for turning off preconditioner.
  | By default, it will be turned off when the charge convergence reaches
  | sc_accuracy_rho  =   0.100000E-05
  No special mixing parameter while Kerker preconditioner is on.
  Using default: charge_mix_param =     0.0500.
  No q(lm)/r^(l+1) cutoff set for long-range Hartree potential.
  | Using default value of  0.100000E-09 .
  | Verify using the multipole_threshold keyword.
  Defaulting to new monopole extrapolation.
  Density update method: automatic selection selected.
  Using density matrix based charge density update.
  Using density matrix based charge density update.
  Using packed matrix style: index .
  Defaulting to use time-reversal symmetry for k-point grid.
  Charge integration errors on the 3D integration grid will be compensated
  by explicit normalization and distribution of residual charges.
  Use the "compensate_multipole_errors" flag to change this behaviour.
  Set 'collect_eigenvectors' to be '.true.' for all serial calculations. This is mandatory.
  Set 'collect_eigenvectors' to be '.true.' for KS_method lapack_fast and serial.
 
  Consistency checks for the contents of geometry.in are next.
 

  Range separation radius for Ewald summation (hartree_convergence_parameter):      4.70785872 bohr.
  Number of empty states per atom not set in control.in - providing a guess from actual geometry.
  | Total number of empty states used during s.c.f. cycle:       88
  If you use a very high smearing, use empty_states (per atom!) in control.in to increase this value.

  Structure-dependent array size parameters: 
  | Maximum number of distinct radial functions  :       30
  | Maximum number of basis functions            :      688
  | Number of Kohn-Sham states (occupied + empty):      488
------------------------------------------------------------

------------------------------------------------------------
          Preparing all fixed parts of the calculation.
------------------------------------------------------------
  Determining machine precision:
    2.225073858507201E-308
  Setting up grids for atomic and cluster calculations.

  Creating wave function, potential, and density for free atoms.
  Runtime choices for atomic solver:
  | atomic solver xc        : PW-LDA
  | compute density gradient: 0
  | compute kinetic density : F

  Species: Cd

  List of occupied orbitals and eigenvalues:
    n    l              occ      energy [Ha]    energy [eV]
    1    0           2.0000     -1003.679964    -27311.5214
    2    0           2.0000      -145.365927     -3955.6081
    3    0           2.0000       -26.947790      -733.2867
    4    0           2.0000        -3.883006      -105.6620
    5    0           2.0000        -0.213308        -5.8044
    2    1           6.0000      -130.471038     -3550.2976
    3    1           6.0000       -22.093416      -601.1925
    4    1           6.0000        -2.454772       -66.7977
    3    2          10.0000       -14.484940      -394.1553
    4    2          10.0000        -0.431794       -11.7497


  Species: Te

  List of occupied orbitals and eigenvalues:
    n    l              occ      energy [Ha]    energy [eV]
    1    0           2.0000     -1203.760829    -32755.9988
    2    0           2.0000      -179.258989     -4877.8853
    3    0           2.0000       -35.457560      -964.8493
    4    0           2.0000        -6.018759      -163.7788
    5    0           2.0000        -0.558343       -15.1933
    2    1           6.0000      -160.938578     -4379.3615
    3    1           6.0000       -29.548572      -804.0576
    4    1           6.0000        -4.187973      -113.9605
    5    1           4.0000        -0.218708        -5.9514
    3    2          10.0000       -20.605058      -560.6921
    4    2          10.0000        -1.525706       -41.5166


  Adding cutoff potential to free-atom effective potential.
  Creating fixed part of basis set: Ionic, confined, hydrogenic.
 
  Cd                   hydrogenic:
 
  List of hydrogenic basis orbitals: 
    n    l      effective z      eigenvalue [eV]  inner max. [A]     outer max. [A]     outer radius [A]   
    2    1         1.600000        -8.6069           1.306574           1.306574           4.602417
    4    3         7.000000       -41.6658           1.214167           1.214167           4.546495
    3    0         2.800000       -11.1322           0.139490           2.349512           4.602417
    3    1         5.200000       -40.8769           0.305024           1.214167           4.491253
    3    2         3.800000       -21.8139           1.259523           1.259523           4.546495
 
 
  Te                   ion:

  List of free ionic orbitals and eigenvalues:
    n    l      energy [Ha]    energy [eV]
    1    0     -1204.573764    -32778.1198
    2    0      -180.044648     -4899.2642
    3    0       -36.238957      -986.1122
    4    0        -6.794085      -184.8765
    5    0        -1.243977       -33.8503
    2    1      -161.724210     -4400.7397
    3    1       -30.329842      -825.3170
    4    1        -4.962095      -135.0255
    5    1        -0.853334       -23.2204
    3    2       -21.386047      -581.9439
    4    2        -2.294255       -62.4298


  List of ionic basis orbitals and eigenvalues:
    n    l      energy [Ha]    energy [eV]    outer radius [A]
    5    0        -1.243959       -33.8498       4.045637

 
  Te                   hydrogenic:
 
  List of hydrogenic basis orbitals: 
    n    l      effective z      eigenvalue [eV]  inner max. [A]     outer max. [A]     outer radius [A]   
    3    2         3.700000       -20.6750           1.282089           1.282089           4.571717
    4    3         6.000000       -30.5978           1.413813           1.413813           4.571717
    3    1         2.700000       -10.4143           0.586309           2.249797           4.627949
 
  Creating atomic-like basis functions for current effective potential.

  Species Cd                  :

  List of atomic basis orbitals and eigenvalues:
    n    l      energy [Ha]    energy [eV]    outer radius [A]
    1    0     -1003.679964    -27311.5214       0.213976
    2    0      -145.365927     -3955.6081       0.583074
    3    0       -26.947790      -733.2867       1.338913
    4    0        -3.883006      -105.6620       3.308540
    5    0        -0.213308        -5.8044       4.602417
    2    1      -130.471038     -3550.2976       0.597506
    3    1       -22.093416      -601.1925       1.440814
    4    1        -2.454772       -66.7977       3.926140
    3    2       -14.484940      -394.1553       1.668472
    4    2        -0.431794       -11.7497       4.491253


  Species Te                  :

  List of atomic basis orbitals and eigenvalues:
    n    l      energy [Ha]    energy [eV]    outer radius [A]
    1    0     -1203.760829    -32755.9988       0.197517
    2    0      -179.258989     -4877.8853       0.531683
    3    0       -35.457560      -964.8493       1.176937
    4    0        -6.018759      -163.7788       2.735843
    5    0        -0.558343       -15.1933       4.516168
    2    1      -160.938578     -4379.3615       0.544843
    3    1       -29.548572      -804.0576       1.266511
    4    1        -4.187973      -113.9605       3.168123
    5    1        -0.218708        -5.9514       4.571717
    3    2       -20.605058      -560.6921       1.431203
    4    2        -1.525706       -41.5166       4.196765

  Assembling full basis from fixed parts.
  | Species Cd :   atomic orbital   1 s accepted.
  | Species Cd :   atomic orbital   2 s accepted.
  | Species Cd :   atomic orbital   3 s accepted.
  | Species Cd :   atomic orbital   4 s accepted.
  | Species Cd :   atomic orbital   5 s accepted.
  | Species Cd :    hydro orbital   3 s accepted.
  | Species Cd :   atomic orbital   2 p accepted.
  | Species Cd :   atomic orbital   3 p accepted.
  | Species Cd :   atomic orbital   4 p accepted.
  | Species Cd :    hydro orbital   3 p accepted.
  | Species Cd :    hydro orbital   2 p accepted.
  | Species Cd :   atomic orbital   3 d accepted.
  | Species Cd :   atomic orbital   4 d accepted.
  | Species Cd :    hydro orbital   3 d accepted.
  | Species Cd :    hydro orbital   4 f accepted.
  | Species Te :   atomic orbital   1 s accepted.
  | Species Te :   atomic orbital   2 s accepted.
  | Species Te :   atomic orbital   3 s accepted.
  | Species Te :   atomic orbital   4 s accepted.
  | Species Te :    ionic orbital   5 s accepted.
  | Species Te :   atomic orbital   5 s accepted.
  | Species Te :   atomic orbital   2 p accepted.
  | Species Te :   atomic orbital   3 p accepted.
  | Species Te :   atomic orbital   4 p accepted.
  | Species Te :   atomic orbital   5 p accepted.
  | Species Te :    hydro orbital   3 p accepted.
  | Species Te :   atomic orbital   3 d accepted.
  | Species Te :   atomic orbital   4 d accepted.
  | Species Te :    hydro orbital   3 d accepted.
  | Species Te :    hydro orbital   4 f accepted.
 
  Basis size parameters after reduction:
  | Total number of radial functions:       30
  | Total number of basis functions :      688
 
  Per-task memory consumption for arrays in subroutine allocate_ext:
  |          11.184208MB.
  Testing on-site integration grid accuracy.
  |  Species  Function  <phi|h_atom|phi> (log., in eV)  <phi|h_atom|phi> (rad., in eV)
           1        1             -27311.5214128762             -27311.4679274383 ***
           1        2              -3955.6081431869              -3955.6073199593
           1        3               -733.2866650691               -733.2866328112
           1        4               -105.6619776909               -105.6619753800
           1        5                 -5.8121226255                 -5.8183112134
           1        6                  6.0132456240                  5.9132339404 ***
           1        7              -3550.2975862685              -3550.2975838586
           1        8               -601.1924504581               -601.1924480784
           1        9                -66.7977492606                -66.7977482958
           1       10                  2.0987929099                  2.0986758389
           1       11                  8.4257232987                  8.3106679622 ***
           1       12               -394.1552685698               -394.1552679034
           1       13                -11.7497335876                -11.7497575828
           1       14                 11.3516263419                 11.3466323109
           1       15                 20.5121080061                 20.5116977996
           2       16             -32755.9987536969             -32755.9280171810 ***
           2       17              -4877.8852852798              -4877.8841477431
           2       18               -964.8492875200               -964.8492389122
           2       19               -163.7787627464               -163.7787595632
           2       20                -15.0193172834                -15.0194255877
           2       21                  4.9411809310                  4.9568096183
           2       22              -4379.3615261910              -4379.3615223687
           2       23               -804.0575603133               -804.0575567314
           2       24               -113.9605491910               -113.9605480372
           2       25                 -5.9563216275                 -5.9597863070
           2       26                  6.1906805484                  6.1075658648 ***
           2       27               -560.6921484066               -560.6921470936
           2       28                -41.5165595259                -41.5165590412
           2       29                  5.2888383357                  5.2845088463
           2       30                 13.1608642142                 13.1580114829
 * Note: Onsite integrals marked "***" above are less accurate than
 * onsite_accuracy_threshold =    0.03000 eV. Usually, this is harmless.
 * However, one integral did have a negative value. This integral could be important.
 * When in doubt, tighten the "radial" and/or "radial_multiplier" flags to check.

  Preparing densities etc. for the partition functions (integrals / Hartree potential).

  Preparations completed.
  max(cpu_time)          :      0.254 s.
  Wall clock time (cpu1) :      0.254 s.
------------------------------------------------------------

  Initializing index lists of integration centers etc. from given atomic structure:
  Mapping all atomic coordinates to central unit cell.

  Initializing the k-points
  Using symmetry for reducing the k-points
  | k-points reduced from:       64 to       36
  | Number of k-points                             :        36
  The eigenvectors in the calculations are COMPLEX.
  | K-points in task   0:         9
  | K-points in task   1:         9
  | K-points in task   2:         9
  | K-points in task   3:         9
  | Number of basis functions in the Hamiltonian integrals :      5377
  | Number of basis functions in a single unit cell        :       688
  | Number of centers in hartree potential         :      1106
  | Number of centers in hartree multipole         :       426
  | Number of centers in electron density summation:       308
  | Number of centers in basis integrals           :       360
  | Number of centers in integrals                 :       183
  | Number of centers in hamiltonian               :       308
  | Consuming         20 KiB for k_phase.
  | Number of super-cells (origin) [n_cells]                     :         343
  | Number of super-cells (after PM_index) [n_cells]             :          36
  | Number of super-cells in hamiltonian [n_cells_in_hamiltonian]:          36
  | Size of matrix packed + index [n_hamiltonian_matrix_size] :      793261

------------------------------------------------------------
          Begin self-consistency loop: Initialization.

          Date     :  20230702, Time     :  135503.384
------------------------------------------------------------
  | Estimated reciprocal-space cutoff momentum G_max:         1.96458638 bohr^-1 .
  | Reciprocal lattice points for long-range Hartree potential:     458
  Partitioning the integration grid into batches with parallel hashing+maxmin method.
  | Number of batches:     2073
  | Maximal batch size:     104
  | Minimal batch size:      49
  | Average batch size:      79.653
  | Standard deviation of batch sizes:      12.205

  Integration load balanced across     4 MPI tasks.
  Work distribution over tasks is as follows:
  Task     0 has      41293 integration points.
  Task     1 has      41292 integration points.
  Task     2 has      41231 integration points.
  Task     3 has      41304 integration points.
  Initializing partition tables, free-atom densities, potentials, etc. across the integration grid (initialize_grid_storage).
  | initialize_grid_storage: Actual outermost partition radius vs. multipole_radius_free
  | (-- VB: in principle, multipole_radius_free should be larger, hence this output)
  | Species        1: Confinement radius =              4.999999999999999 AA, multipole_radius_free =              5.013611646002804 AA.
  | Species        1: outer_partition_radius set to              5.013611646002804 AA .
  | Species        2: Confinement radius =              4.999999999999999 AA, multipole_radius_free =              5.041424710192624 AA.
  | Species        2: outer_partition_radius set to              5.041424710192624 AA .
  | The sparse table of interatomic distances needs        321.94 kbyte instead of      1036.80 kbyte of memory.
  | Net number of integration points:   165120
  | of which are non-zero points    :   156955
  | Numerical average free-atom electrostatic potential    :    -13.66026490 eV
  Renormalizing the initial density to the exact electron count on the 3D integration grid.
  | Initial density: Formal number of electrons (from input files) :     800.0000000000
  | Integrated number of electrons on 3D grid     :     800.0112023350
  | Charge integration error                      :       0.0112023350
  | Normalization factor for density and gradient :       0.9999859973
  Renormalizing the free-atom superposition density to the exact electron count on the 3D integration grid.
  | Formal number of electrons (from input files) :     800.0000000000
  | Integrated number of electrons on 3D grid     :     800.0112023350
  | Charge integration error                      :       0.0112023350
  | Normalization factor for density and gradient :       0.9999859973
  Obtaining max. number of non-zero basis functions in each batch (get_n_compute_maxes).
  | Maximal number of non-zero basis functions:      555 in task     0
  | Maximal number of non-zero basis functions:      548 in task     1
  | Maximal number of non-zero basis functions:      571 in task     2
  | Maximal number of non-zero basis functions:      564 in task     3
  Allocating       46.107 MB for KS_eigenvector_complex
  Integrating Hamiltonian matrix: batch-based integration.
  Time summed over all CPUs for integration: real work        3.546 s, elapsed        3.598 s
  Integrating overlap matrix.
  Time summed over all CPUs for integration: real work        2.826 s, elapsed        2.882 s
  Decreasing sparse matrix size:
  | Tolerance:  0.1000E-12
  Hamiltonian matrix
  | Array has   692806 nonzero elements out of   793261 elements
  | Sparsity factor is 0.127
  Overlap matrix
  | Array has   648050 nonzero elements out of   793261 elements
  | Sparsity factor is 0.183
  New size of hamiltonian matrix:      693178

  Updating Kohn-Sham eigenvalues and eigenvectors using ELSI and the (modified) LAPACK eigensolver.

  Obtaining occupation numbers and electronic chemical potential using ELSI.
  | Note that, for insulating systems, the printed 'chemical potential' value is not uniquely defined.
  | It can be anywhere in the energy gap, as long as it correctly separates occupied and unoccupied states.
  | In systems with a gap, the physically relevant chemical potential is the VBM or HOMO.

  | Chemical potential (Fermi level):    -4.91678878 eV
  Writing Kohn-Sham eigenvalues.
  K-point:       1 at    0.000000    0.000000    0.000000 (in units of recip. lattice)

  State    Occupation    Eigenvalue [Ha]    Eigenvalue [eV]
      1       2.00000       -1203.763852       -32756.08103
      2       2.00000       -1203.763825       -32756.08030
      3       2.00000       -1203.763825       -32756.08030
      4       2.00000       -1203.763825       -32756.08030
      5       2.00000       -1203.763825       -32756.08030
      6       2.00000       -1203.763825       -32756.08029
      7       2.00000       -1203.763825       -32756.08029
      8       2.00000       -1203.763799       -32756.07959
      9       2.00000       -1003.684021       -27311.63181
     10       2.00000       -1003.684020       -27311.63179
     11       2.00000       -1003.684020       -27311.63179
     12       2.00000       -1003.684020       -27311.63179
     13       2.00000       -1003.684020       -27311.63179
     14       2.00000       -1003.684020       -27311.63179
     15       2.00000       -1003.684020       -27311.63179
     16       2.00000       -1003.684020       -27311.63179
     17       2.00000        -179.262110        -4877.97021
     18       2.00000        -179.262083        -4877.96948
     19       2.00000        -179.262083        -4877.96948
     20       2.00000        -179.262083        -4877.96948
     21       2.00000        -179.262083        -4877.96948
     22       2.00000        -179.262083        -4877.96947
     23       2.00000        -179.262083        -4877.96947
     24       2.00000        -179.262057        -4877.96876
     25       2.00000        -160.941690        -4379.44621
     26       2.00000        -160.941690        -4379.44620
     27       2.00000        -160.941690        -4379.44620
     28       2.00000        -160.941663        -4379.44547
     29       2.00000        -160.941663        -4379.44547
     30       2.00000        -160.941663        -4379.44547
     31       2.00000        -160.941663        -4379.44547
     32       2.00000        -160.941663        -4379.44547
     33       2.00000        -160.941663        -4379.44547
     34       2.00000        -160.941663        -4379.44547
     35       2.00000        -160.941663        -4379.44547
     36       2.00000        -160.941663        -4379.44547
     37       2.00000        -160.941663        -4379.44547
     38       2.00000        -160.941663        -4379.44547
     39       2.00000        -160.941663        -4379.44547
     40       2.00000        -160.941663        -4379.44547
     41       2.00000        -160.941663        -4379.44547
     42       2.00000        -160.941663        -4379.44547
     43       2.00000        -160.941663        -4379.44547
     44       2.00000        -160.941663        -4379.44547
     45       2.00000        -160.941663        -4379.44547
     46       2.00000        -160.941637        -4379.44476
     47       2.00000        -160.941637        -4379.44476
     48       2.00000        -160.941636        -4379.44475
     49       2.00000        -145.370100        -3955.72168
     50       2.00000        -145.370099        -3955.72166
     51       2.00000        -145.370099        -3955.72166
     52       2.00000        -145.370099        -3955.72166
     53       2.00000        -145.370099        -3955.72166
     54       2.00000        -145.370099        -3955.72166
     55       2.00000        -145.370099        -3955.72166
     56       2.00000        -145.370099        -3955.72166
     57       2.00000        -130.475197        -3550.41074
     58       2.00000        -130.475196        -3550.41073
     59       2.00000        -130.475196        -3550.41072
     60       2.00000        -130.475195        -3550.41071
     61       2.00000        -130.475195        -3550.41071
     62       2.00000        -130.475195        -3550.41071
     63       2.00000        -130.475195        -3550.41071
     64       2.00000        -130.475195        -3550.41071
     65       2.00000        -130.475195        -3550.41071
     66       2.00000        -130.475195        -3550.41071
     67       2.00000        -130.475195        -3550.41071
     68       2.00000        -130.475195        -3550.41071
     69       2.00000        -130.475195        -3550.41071
     70       2.00000        -130.475195        -3550.41071
     71       2.00000        -130.475195        -3550.41071
     72       2.00000        -130.475195        -3550.41071
     73       2.00000        -130.475195        -3550.41071
     74       2.00000        -130.475195        -3550.41071
     75       2.00000        -130.475195        -3550.41071
     76       2.00000        -130.475195        -3550.41071
     77       2.00000        -130.475195        -3550.41071
     78       2.00000        -130.475195        -3550.41070
     79       2.00000        -130.475195        -3550.41070
     80       2.00000        -130.475195        -3550.41070
     81       2.00000         -35.460918         -964.94068
     82       2.00000         -35.460890         -964.93991
     83       2.00000         -35.460890         -964.93991
     84       2.00000         -35.460890         -964.93991
     85       2.00000         -35.460890         -964.93991
     86       2.00000         -35.460890         -964.93990
     87       2.00000         -35.460890         -964.93990
     88       2.00000         -35.460862         -964.93915
     89       2.00000         -29.551934         -804.14903
     90       2.00000         -29.551931         -804.14896
     91       2.00000         -29.551931         -804.14896
     92       2.00000         -29.551904         -804.14821
     93       2.00000         -29.551904         -804.14821
     94       2.00000         -29.551903         -804.14821
     95       2.00000         -29.551903         -804.14821
     96       2.00000         -29.551903         -804.14821
     97       2.00000         -29.551903         -804.14821
     98       2.00000         -29.551903         -804.14821
     99       2.00000         -29.551903         -804.14821
    100       2.00000         -29.551903         -804.14821
    101       2.00000         -29.551903         -804.14821
    102       2.00000         -29.551903         -804.14821
    103       2.00000         -29.551903         -804.14821
    104       2.00000         -29.551903         -804.14821
    105       2.00000         -29.551903         -804.14821
    106       2.00000         -29.551903         -804.14821
    107       2.00000         -29.551903         -804.14820
    108       2.00000         -29.551903         -804.14820
    109       2.00000         -29.551903         -804.14820
    110       2.00000         -29.551877         -804.14748
    111       2.00000         -29.551877         -804.14748
    112       2.00000         -29.551874         -804.14741
    113       2.00000         -26.952363         -733.41110
    114       2.00000         -26.952362         -733.41108
    115       2.00000         -26.952362         -733.41108
    116       2.00000         -26.952362         -733.41108
    117       2.00000         -26.952362         -733.41108
    118       2.00000         -26.952362         -733.41108
    119       2.00000         -26.952362         -733.41108
    120       2.00000         -26.952362         -733.41108
    121       2.00000         -22.097999         -601.31715
    122       2.00000         -22.097994         -601.31701
    123       2.00000         -22.097993         -601.31699
    124       2.00000         -22.097993         -601.31699
    125       2.00000         -22.097993         -601.31699
    126       2.00000         -22.097993         -601.31699
    127       2.00000         -22.097993         -601.31699
    128       2.00000         -22.097993         -601.31699
    129       2.00000         -22.097993         -601.31699
    130       2.00000         -22.097993         -601.31699
    131       2.00000         -22.097993         -601.31699
    132       2.00000         -22.097993         -601.31699
    133       2.00000         -22.097993         -601.31699
    134       2.00000         -22.097993         -601.31699
    135       2.00000         -22.097993         -601.31699
    136       2.00000         -22.097993         -601.31699
    137       2.00000         -22.097993         -601.31699
    138       2.00000         -22.097993         -601.31699
    139       2.00000         -22.097993         -601.31699
    140       2.00000         -22.097993         -601.31699
    141       2.00000         -22.097993         -601.31699
    142       2.00000         -22.097993         -601.31699
    143       2.00000         -22.097993         -601.31699
    144       2.00000         -22.097989         -601.31687
    145       2.00000         -20.608388         -560.78278
    146       2.00000         -20.608387         -560.78274
    147       2.00000         -20.608387         -560.78274
    148       2.00000         -20.608384         -560.78267
    149       2.00000         -20.608384         -560.78266
    150       2.00000         -20.608359         -560.78198
    151       2.00000         -20.608359         -560.78198
    152       2.00000         -20.608359         -560.78198
    153       2.00000         -20.608359         -560.78198
    154       2.00000         -20.608359         -560.78198
    155       2.00000         -20.608359         -560.78198
    156       2.00000         -20.608359         -560.78198
    157       2.00000         -20.608359         -560.78198
    158       2.00000         -20.608359         -560.78198
    159       2.00000         -20.608359         -560.78198
    160       2.00000         -20.608359         -560.78198
    161       2.00000         -20.608359         -560.78198
    162       2.00000         -20.608359         -560.78198
    163       2.00000         -20.608359         -560.78198
    164       2.00000         -20.608359         -560.78198
    165       2.00000         -20.608359         -560.78198
    166       2.00000         -20.608359         -560.78197
    167       2.00000         -20.608359         -560.78197
    168       2.00000         -20.608356         -560.78191
    169       2.00000         -20.608356         -560.78191
    170       2.00000         -20.608356         -560.78190
    171       2.00000         -20.608356         -560.78190
    172       2.00000         -20.608356         -560.78190
    173       2.00000         -20.608356         -560.78190
    174       2.00000         -20.608356         -560.78190
    175       2.00000         -20.608356         -560.78190
    176       2.00000         -20.608356         -560.78190
    177       2.00000         -20.608356         -560.78190
    178       2.00000         -20.608356         -560.78190
    179       2.00000         -20.608356         -560.78190
    180       2.00000         -20.608332         -560.78125
    181       2.00000         -20.608332         -560.78125
    182       2.00000         -20.608330         -560.78120
    183       2.00000         -20.608329         -560.78115
    184       2.00000         -20.608328         -560.78115
    185       2.00000         -14.489480         -394.27881
    186       2.00000         -14.489478         -394.27875
    187       2.00000         -14.489475         -394.27869
    188       2.00000         -14.489475         -394.27869
    189       2.00000         -14.489475         -394.27869
    190       2.00000         -14.489475         -394.27869
    191       2.00000         -14.489475         -394.27869
    192       2.00000         -14.489475         -394.27869
    193       2.00000         -14.489475         -394.27869
    194       2.00000         -14.489475         -394.27869
    195       2.00000         -14.489475         -394.27869
    196       2.00000         -14.489475         -394.27869
    197       2.00000         -14.489475         -394.27869
    198       2.00000         -14.489475         -394.27869
    199       2.00000         -14.489475         -394.27869
    200       2.00000         -14.489475         -394.27869
    201       2.00000         -14.489475         -394.27869
    202       2.00000         -14.489475         -394.27869
    203       2.00000         -14.489475         -394.27869
    204       2.00000         -14.489475         -394.27869
    205       2.00000         -14.489475         -394.27869
    206       2.00000         -14.489475         -394.27869
    207       2.00000         -14.489475         -394.27869
    208       2.00000         -14.489473         -394.27863
    209       2.00000         -14.489469         -394.27851
    210       2.00000         -14.489469         -394.27850
    211       2.00000         -14.489469         -394.27850
    212       2.00000         -14.489469         -394.27850
    213       2.00000         -14.489469         -394.27850
    214       2.00000         -14.489469         -394.27850
    215       2.00000         -14.489469         -394.27850
    216       2.00000         -14.489469         -394.27850
    217       2.00000         -14.489469         -394.27850
    218       2.00000         -14.489469         -394.27850
    219       2.00000         -14.489469         -394.27850
    220       2.00000         -14.489469         -394.27850
    221       2.00000         -14.489469         -394.27850
    222       2.00000         -14.489469         -394.27850
    223       2.00000         -14.489469         -394.27850
    224       2.00000         -14.489468         -394.27849
    225       2.00000          -6.023439         -163.90611
    226       2.00000          -6.023402         -163.90510
    227       2.00000          -6.023402         -163.90510
    228       2.00000          -6.023402         -163.90510
    229       2.00000          -6.023402         -163.90510
    230       2.00000          -6.023402         -163.90510
    231       2.00000          -6.023402         -163.90510
    232       2.00000          -6.023366         -163.90413
    233       2.00000          -4.192996         -114.09724
    234       2.00000          -4.192976         -114.09669
    235       2.00000          -4.192976         -114.09669
    236       2.00000          -4.192947         -114.09588
    237       2.00000          -4.192946         -114.09588
    238       2.00000          -4.192944         -114.09582
    239       2.00000          -4.192944         -114.09582
    240       2.00000          -4.192944         -114.09582
    241       2.00000          -4.192944         -114.09582
    242       2.00000          -4.192944         -114.09581
    243       2.00000          -4.192944         -114.09581
    244       2.00000          -4.192944         -114.09581
    245       2.00000          -4.192944         -114.09581
    246       2.00000          -4.192944         -114.09581
    247       2.00000          -4.192944         -114.09581
    248       2.00000          -4.192944         -114.09581
    249       2.00000          -4.192944         -114.09581
    250       2.00000          -4.192944         -114.09581
    251       2.00000          -4.192944         -114.09581
    252       2.00000          -4.192941         -114.09574
    253       2.00000          -4.192941         -114.09574
    254       2.00000          -4.192913         -114.09496
    255       2.00000          -4.192913         -114.09496
    256       2.00000          -4.192893         -114.09443
    257       2.00000          -3.890285         -105.86005
    258       2.00000          -3.890284         -105.86002
    259       2.00000          -3.890284         -105.86001
    260       2.00000          -3.890284         -105.86001
    261       2.00000          -3.890284         -105.86001
    262       2.00000          -3.890284         -105.86001
    263       2.00000          -3.890284         -105.86001
    264       2.00000          -3.890284         -105.86001
    265       2.00000          -2.463079          -67.02379
    266       2.00000          -2.463027          -67.02238
    267       2.00000          -2.463027          -67.02237
    268       2.00000          -2.463027          -67.02237
    269       2.00000          -2.463027          -67.02237
    270       2.00000          -2.463027          -67.02236
    271       2.00000          -2.463026          -67.02235
    272       2.00000          -2.463026          -67.02235
    273       2.00000          -2.463025          -67.02232
    274       2.00000          -2.463025          -67.02232
    275       2.00000          -2.463025          -67.02231
    276       2.00000          -2.463025          -67.02231
    277       2.00000          -2.463025          -67.02231
    278       2.00000          -2.463024          -67.02231
    279       2.00000          -2.463024          -67.02231
    280       2.00000          -2.463024          -67.02230
    281       2.00000          -2.463024          -67.02230
    282       2.00000          -2.463024          -67.02230
    283       2.00000          -2.463024          -67.02230
    284       2.00000          -2.463024          -67.02229
    285       2.00000          -2.463024          -67.02229
    286       2.00000          -2.463024          -67.02229
    287       2.00000          -2.463024          -67.02228
    288       2.00000          -2.462975          -67.02095
    289       2.00000          -1.532263          -41.69500
    290       2.00000          -1.532237          -41.69429
    291       2.00000          -1.532234          -41.69420
    292       2.00000          -1.532212          -41.69360
    293       2.00000          -1.532210          -41.69356
    294       2.00000          -1.532207          -41.69349
    295       2.00000          -1.532201          -41.69331
    296       2.00000          -1.532199          -41.69325
    297       2.00000          -1.532198          -41.69322
    298       2.00000          -1.532194          -41.69313
    299       2.00000          -1.532192          -41.69306
    300       2.00000          -1.532191          -41.69303
    301       2.00000          -1.532190          -41.69302
    302       2.00000          -1.532188          -41.69296
    303       2.00000          -1.532185          -41.69288
    304       2.00000          -1.532183          -41.69281
    305       2.00000          -1.532181          -41.69277
    306       2.00000          -1.532181          -41.69276
    307       2.00000          -1.532180          -41.69273
    308       2.00000          -1.532179          -41.69272
    309       2.00000          -1.532176          -41.69264
    310       2.00000          -1.532153          -41.69199
    311       2.00000          -1.532149          -41.69191
    312       2.00000          -1.532123          -41.69118
    313       2.00000          -1.531753          -41.68111
    314       2.00000          -1.531750          -41.68103
    315       2.00000          -1.531714          -41.68005
    316       2.00000          -1.531712          -41.68000
    317       2.00000          -1.531711          -41.67997
    318       2.00000          -1.531708          -41.67990
    319       2.00000          -1.531708          -41.67989
    320       2.00000          -1.531707          -41.67986
    321       2.00000          -1.531706          -41.67985
    322       2.00000          -1.531704          -41.67979
    323       2.00000          -1.531704          -41.67979
    324       2.00000          -1.531699          -41.67964
    325       2.00000          -1.531698          -41.67963
    326       2.00000          -1.531695          -41.67954
    327       2.00000          -1.531662          -41.67864
    328       2.00000          -1.531659          -41.67856
    329       2.00000          -0.617060          -16.79105
    330       2.00000          -0.601207          -16.35968
    331       2.00000          -0.601098          -16.35672
    332       2.00000          -0.601098          -16.35672
    333       2.00000          -0.600995          -16.35390
    334       2.00000          -0.595969          -16.21713
    335       2.00000          -0.595898          -16.21520
    336       2.00000          -0.595826          -16.21324
    337       2.00000          -0.460319          -12.52593
    338       2.00000          -0.460292          -12.52517
    339       2.00000          -0.460265          -12.52444
    340       2.00000          -0.457287          -12.44340
    341       2.00000          -0.457247          -12.44231
    342       2.00000          -0.457232          -12.44192
    343       2.00000          -0.457225          -12.44173
    344       2.00000          -0.457222          -12.44164
    345       2.00000          -0.457216          -12.44147
    346       2.00000          -0.457202          -12.44110
    347       2.00000          -0.457163          -12.44003
    348       2.00000          -0.453270          -12.33410
    349       2.00000          -0.453270          -12.33409
    350       2.00000          -0.453269          -12.33408
    351       2.00000          -0.452359          -12.30931
    352       2.00000          -0.452326          -12.30843
    353       2.00000          -0.452318          -12.30820
    354       2.00000          -0.452318          -12.30820
    355       2.00000          -0.452310          -12.30797
    356       2.00000          -0.452276          -12.30706
    357       2.00000          -0.447072          -12.16545
    358       2.00000          -0.447072          -12.16544
    359       2.00000          -0.446751          -12.15671
    360       2.00000          -0.446746          -12.15658
    361       2.00000          -0.446737          -12.15633
    362       2.00000          -0.446737          -12.15632
    363       2.00000          -0.446736          -12.15632
    364       2.00000          -0.446736          -12.15630
    365       2.00000          -0.446727          -12.15607
    366       2.00000          -0.446722          -12.15593
    367       2.00000          -0.445702          -12.12817
    368       2.00000          -0.445702          -12.12817
    369       2.00000          -0.445702          -12.12817
    370       2.00000          -0.438502          -11.93226
    371       2.00000          -0.438474          -11.93148
    372       2.00000          -0.438473          -11.93146
    373       2.00000          -0.438444          -11.93067
    374       2.00000          -0.435443          -11.84900
    375       2.00000          -0.435428          -11.84859
    376       2.00000          -0.435412          -11.84817
    377       2.00000          -0.357041           -9.71557
    378       2.00000          -0.356938           -9.71278
    379       2.00000          -0.356934           -9.71268
    380       2.00000          -0.356833           -9.70991
    381       2.00000          -0.349262           -9.50390
    382       2.00000          -0.349262           -9.50390
    383       2.00000          -0.349259           -9.50383
    384       2.00000          -0.266420           -7.24965
    385       2.00000          -0.266386           -7.24874
    386       2.00000          -0.266364           -7.24814
    387       2.00000          -0.266364           -7.24813
    388       2.00000          -0.266342           -7.24754
    389       2.00000          -0.266308           -7.24662
    390       2.00000          -0.226711           -6.16911
    391       2.00000          -0.226656           -6.16763
    392       2.00000          -0.226615           -6.16650
    393       2.00000          -0.226611           -6.16641
    394       2.00000          -0.226595           -6.16595
    395       2.00000          -0.226591           -6.16586
    396       2.00000          -0.226550           -6.16473
    397       2.00000          -0.226496           -6.16327
    398       2.00000          -0.198696           -5.40679
    399       2.00000          -0.198673           -5.40616
    400       2.00000          -0.198650           -5.40555
    401       0.00000          -0.167067           -4.54614
    402       0.00000          -0.125306           -3.40975
    403       0.00000          -0.125254           -3.40834
    404       0.00000          -0.125249           -3.40821
    405       0.00000          -0.125199           -3.40683
    406       0.00000          -0.092897           -2.52785
    407       0.00000          -0.092784           -2.52479
    408       0.00000          -0.092666           -2.52157
    409       0.00000          -0.091986           -2.50305
    410       0.00000          -0.091983           -2.50298
    411       0.00000          -0.091982           -2.50295
    412       0.00000          -0.015278           -0.41573
    413       0.00000          -0.015253           -0.41505
    414       0.00000          -0.015226           -0.41433
    415       0.00000           0.008286            0.22546
    416       0.00000           0.008344            0.22706
    417       0.00000           0.008487            0.23095
    418       0.00000           0.008491            0.23107
    419       0.00000           0.008503            0.23137
    420       0.00000           0.008506            0.23145
    421       0.00000           0.008651            0.23540
    422       0.00000           0.008711            0.23703
    423       0.00000           0.079693            2.16854
    424       0.00000           0.079822            2.17207
    425       0.00000           0.079823            2.17210
    426       0.00000           0.079951            2.17559
    427       0.00000           0.099141            2.69775
    428       0.00000           0.137448            3.74015
    429       0.00000           0.137448            3.74015
    430       0.00000           0.137449            3.74017
    431       0.00000           0.150158            4.08600
    432       0.00000           0.150169            4.08630
    433       0.00000           0.150182            4.08666
    434       0.00000           0.150202            4.08720
    435       0.00000           0.151672            4.12720
    436       0.00000           0.151792            4.13047
    437       0.00000           0.151816            4.13112
    438       0.00000           0.151816            4.13113
    439       0.00000           0.151840            4.13178
    440       0.00000           0.151981            4.13561
    441       0.00000           0.180257            4.90503
    442       0.00000           0.180257            4.90505
    443       0.00000           0.217258            5.91190
    444       0.00000           0.217274            5.91233
    445       0.00000           0.217316            5.91347
    446       0.00000           0.217322            5.91364
    447       0.00000           0.217356            5.91456
    448       0.00000           0.217361            5.91468
    449       0.00000           0.217400            5.91576
    450       0.00000           0.217418            5.91625
    451       0.00000           0.231703            6.30495
    452       0.00000           0.231718            6.30537
    453       0.00000           0.231734            6.30579
    454       0.00000           0.240423            6.54223
    455       0.00000           0.240480            6.54380
    456       0.00000           0.240535            6.54528
    457       0.00000           0.248688            6.76715
    458       0.00000           0.248803            6.77027
    459       0.00000           0.248804            6.77030
    460       0.00000           0.248920            6.77345
    461       0.00000           0.254189            6.91684
    462       0.00000           0.254237            6.91813
    463       0.00000           0.254253            6.91857
    464       0.00000           0.254253            6.91859
    465       0.00000           0.254269            6.91900
    466       0.00000           0.254320            6.92039
    467       0.00000           0.269356            7.32954
    468       0.00000           0.269419            7.33128
    469       0.00000           0.269468            7.33260
    470       0.00000           0.269470            7.33266
    471       0.00000           0.269489            7.33317
    472       0.00000           0.269491            7.33323
    473       0.00000           0.269540            7.33455
    474       0.00000           0.269604            7.33631
    475       0.00000           0.294720            8.01974
    476       0.00000           0.294806            8.02208
    477       0.00000           0.294893            8.02444
    478       0.00000           0.354878            9.65672
    479       0.00000           0.354878            9.65673
    480       0.00000           0.354879            9.65674
    481       0.00000           0.432339           11.76454
    482       0.00000           0.432345           11.76472
    483       0.00000           0.432350           11.76484
    484       0.00000           0.440257           11.98001
    485       0.00000           0.440273           11.98044
    486       0.00000           0.440274           11.98047
    487       0.00000           0.440294           11.98100
    488       0.00000           0.444053           12.08330

  What follows are estimated values for band gap, HOMO, LUMO, etc.
  | They are estimated on a discrete k-point grid and not necessarily exact.
  | For converged numbers, create a DOS and/or band structure plot on a denser k-grid.

  Highest occupied state (VBM) at     -5.40554680 eV (relative to internal zero)
  | Occupation number:      2.00000000
  | K-point:       1 at    0.000000    0.000000    0.000000 (in units of recip. lattice)

  Lowest unoccupied state (CBM) at    -4.54613530 eV (relative to internal zero)
  | Occupation number:      0.00000000
  | K-point:       1 at    0.000000    0.000000    0.000000 (in units of recip. lattice)

  ESTIMATED overall HOMO-LUMO gap:      0.85941151 eV between HOMO at k-point 1 and LUMO at k-point 1
  | This appears to be a direct band gap.
  The gap value is above 0.2 eV. Unless you are using a very sparse k-point grid,
  this system is most likely an insulator or a semiconductor.
  Calculating total energy contributions from superposition of free atom densities.

  Total energy components:
  | Sum of eigenvalues            :      -61446.46085677 Ha    -1672043.27253766 eV
  | XC energy correction          :       -2568.96585456 Ha      -69905.11763570 eV
  | XC potential correction       :        3406.86672100 Ha       92705.56028527 eV
  | Free-atom electrostatic energy:      -39769.88494936 Ha    -1082193.63087770 eV
  | Hartree energy correction     :           0.00000000 Ha           0.00000000 eV
  | Entropy correction            :           0.00000000 Ha           0.00000000 eV
  | ---------------------------
  | Total energy                  :     -100378.44493968 Ha    -2731436.46076579 eV
  | Total energy, T -> 0          :     -100378.44493968 Ha    -2731436.46076579 eV  <-- do not rely on this value for anything but (periodic) metals
  | Electronic free energy        :     -100378.44493968 Ha    -2731436.46076579 eV

  Derived energy quantities:
  | Kinetic energy                :      104857.19653032 Ha     2853309.49237847 eV
  | Electrostatic energy          :     -202666.67561544 Ha    -5514840.83550856 eV
  | Energy correction for multipole
  | error in Hartree potential    :           0.00000000 Ha           0.00000000 eV
  | Sum of eigenvalues per atom                           :     -104502.70453360 eV
  | Total energy (T->0) per atom                          :     -170714.77879786 eV  <-- do not rely on this value for anything but (periodic) metals
  | Electronic free energy per atom                       :     -170714.77879786 eV
  Initialize hartree_potential_storage
  Max. number of atoms included in rho_multipole:           16

  End scf initialization - timings             :  max(cpu_time)    wall_clock(cpu1)
  | Time for scf. initialization                :        4.877 s           4.877 s
  | Boundary condition initialization           :        0.184 s           0.184 s
  | Integration                                 :        1.642 s           1.642 s
  | Solution of K.-S. eqns.                     :        2.200 s           2.199 s
  | Grid partitioning                           :        0.380 s           0.380 s
  | Preloading free-atom quantities on grid     :        0.526 s           0.526 s
  | Free-atom superposition energy              :        0.118 s           0.118 s
  | Total energy evaluation                     :        0.000 s           0.000 s

  Partial memory accounting:
  | Current value for overall tracked memory usage:
  |   Minimum:       59.330 MB (on task 0)
  |   Maximum:       59.330 MB (on task 0)
  |   Average:       59.330 MB
  | Peak value for overall tracked memory usage:
  |   Minimum:       88.236 MB (on task 0 after allocating eval_tmp)
  |   Maximum:       88.236 MB (on task 0 after allocating eval_tmp)
  |   Average:       88.236 MB
  | Largest tracked array allocation so far:
  |   Minimum:       46.107 MB (KS_eigenvector_complex on task 0)
  |   Maximum:       46.107 MB (KS_eigenvector_complex on task 0)
  |   Average:       46.107 MB
  Note:  These values currently only include a subset of arrays which are explicitly tracked.
  The "true" memory usage will be greater.
------------------------------------------------------------
  Time for density update prior                :  max(cpu_time)    wall_clock(cpu1)
  | self-consistency iterative process          :        0.950 s           0.949 s
------------------------------------------------------------
Convergence:    q app. |  density  | eigen (eV) | Etot (eV) | forces (eV/A) |       CPU time |     Clock time
  SCF    1 :  0.95E-12 |  0.22E+00 |  -0.15E+02 |  0.25E+00 |             . |        5.034 s |        5.035 s
  SCF    2 :  0.56E-11 |  0.20E+00 |  -0.14E+03 |  0.14E+01 |             . |        5.192 s |        5.192 s
  SCF    3 : -0.20E-12 |  0.10E+00 |  -0.53E+02 |  0.16E+00 |             . |        5.240 s |        5.240 s
  SCF    4 : -0.99E-12 |  0.40E-01 |   0.72E+01 |  0.12E-01 |             . |        5.236 s |        5.236 s
  SCF    5 :  0.17E-12 |  0.21E-01 |   0.19E+02 |  0.95E-02 |             . |        5.329 s |        5.329 s
  SCF    6 : -0.95E-12 |  0.28E-02 |   0.32E+01 | -0.36E-05 |             . |        5.241 s |        5.242 s
  SCF    7 : -0.66E-12 |  0.88E-03 |  -0.75E+00 | -0.23E-04 |             . |       14.312 s |       14.385 s
  SCF    8 :  0.14E-11 |  0.68E-03 |  -0.18E+01 |  0.17E-03 |             . |        6.073 s |        6.073 s
  SCF    9 : -0.16E-11 |  0.62E-04 |  -0.14E+00 |  0.44E-05 |             . |        5.146 s |        5.146 s
  SCF   10 : -0.33E-11 |  0.44E-04 |   0.13E+00 |  0.40E-06 |             . |        5.147 s |        5.147 s
  SCF   11 :  0.23E-11 |  0.49E-05 |  -0.81E-03 | -0.27E-06 |             . |        5.148 s |        5.148 s
  SCF   12 : -0.42E-12 |  0.21E-05 |   0.39E-02 |  0.27E-07 |             . |        5.145 s |        5.145 s
  SCF   13 : -0.21E-12 |  0.12E-05 |   0.11E-03 | -0.34E-07 |             . |        5.146 s |        5.146 s
  SCF   14 : -0.32E-11 |  0.49E-06 |   0.38E-03 |  0.55E-08 |             . |        5.149 s |        5.149 s
  SCF   15 :  0.18E-12 |  0.31E-06 |   0.47E-03 | -0.44E-07 |      0.16E-01 |       22.883 s |       22.884 s

  Total energy components:
  | Sum of eigenvalues            :      -61453.11764643 Ha    -1672224.41300063 eV
  | XC energy correction          :       -2568.73719245 Ha      -69898.89542314 eV
  | XC potential correction       :        3406.56516588 Ha       92697.35455319 eV
  | Free-atom electrostatic energy:      -39769.88494936 Ha    -1082193.63087770 eV
  | Hartree energy correction     :           6.79644878 Ha         184.94078095 eV
  | Entropy correction            :          -0.00000000 Ha          -0.00000000 eV
  | ---------------------------
  | Total energy                  :     -100378.37817357 Ha    -2731434.64396733 eV
  | Total energy, T -> 0          :     -100378.37817357 Ha    -2731434.64396733 eV  <-- do not rely on this value for anything but (periodic) metals
  | Electronic free energy        :     -100378.37817357 Ha    -2731434.64396733 eV

  Derived energy quantities:
  | Kinetic energy                :      104858.45278446 Ha     2853343.67679316 eV
  | Electrostatic energy          :     -202668.09376558 Ha    -5514879.42533735 eV
  | Energy correction for multipole
  | error in Hartree potential    :           0.02087663 Ha           0.56808202 eV
  | Sum of eigenvalues per atom                           :     -104514.02581254 eV
  | Total energy (T->0) per atom                          :     -170714.66524796 eV  <-- do not rely on this value for anything but (periodic) metals
  | Electronic free energy per atom                       :     -170714.66524796 eV
  What follows are estimated values for band gap, HOMO, LUMO, etc.
  | They are estimated on a discrete k-point grid and not necessarily exact.
  | For converged numbers, create a DOS and/or band structure plot on a denser k-grid.

  Highest occupied state (VBM) at     -5.17729949 eV (relative to internal zero)
  | Occupation number:      2.00000000
  | K-point:       1 at    0.000000    0.000000    0.000000 (in units of recip. lattice)

  Lowest unoccupied state (CBM) at    -4.65612177 eV (relative to internal zero)
  | Occupation number:      0.00000000
  | K-point:       1 at    0.000000    0.000000    0.000000 (in units of recip. lattice)

  ESTIMATED overall HOMO-LUMO gap:      0.52117771 eV between HOMO at k-point 1 and LUMO at k-point 1
  | This appears to be a direct band gap.
  The gap value is above 0.2 eV. Unless you are using a very sparse k-point grid,
  this system is most likely an insulator or a semiconductor.

  | Chemical Potential                          :    -4.82212531 eV
  | Note that, for insulating systems, the printed 'chemical potential' value is not uniquely defined.
  | It can be anywhere in the energy gap, as long as it correctly separates occupied and unoccupied states.
  | In systems with a gap, the physically relevant chemical potential is the VBM or HOMO.

  Self-consistency cycle converged.

  Removing unitary transformations (pure translations, rotations) from forces on atoms.
  Atomic forces before filtering:
  | Net force on center of mass :  -0.919978E-04 -0.958034E-04 -0.851735E-04 eV/A
  Atomic forces after filtering:
  | Net force on center of mass :  -0.278760E-17 -0.111504E-16 -0.278760E-17 eV/A

  Energy and forces in a compact form:
  | Total energy uncorrected      :         -0.273143464396733E+07 eV
  | Total energy corrected        :         -0.273143464396733E+07 eV  <-- do not rely on this value for anything but (periodic) metals
  | Electronic free energy        :         -0.273143464396733E+07 eV
  Total atomic forces (unitary forces cleaned) [eV/Ang]:
  |    1          0.714171872066384E-03          0.351072745026194E-01          0.347531205717151E-01
  |    2         -0.303503965739360E-04         -0.468279672140089E-02         -0.503712950341321E-02
  |    3         -0.242697572290100E-02          0.312735320768040E-02         -0.262566260083323E-02
  |    4          0.239586414169567E-02         -0.227357084360273E-02          0.277868489591761E-02
  |    5         -0.242133476622148E-02         -0.227510477153519E-02          0.277424143676511E-02
  |    6          0.239984915576583E-02          0.313068018179901E-02         -0.262660501766630E-02
  |    7         -0.206955293825541E-04          0.136590674475948E-03         -0.214232069482296E-03
  |    8         -0.264513626987413E-04         -0.557461468707224E-03         -0.904031339809944E-03
  |    9         -0.320261696769241E-03         -0.598824024056583E-05          0.339187397722794E-03
  |   10          0.391394319079212E-03         -0.714198731830381E-05          0.345054033700990E-03
  |   11          0.274985576657534E-04          0.346232478303978E-03          0.699463060067585E-03
  |   12         -0.249518326760672E-04         -0.627074424109823E-03         -0.174128273777486E-03
  |   13          0.346657937461927E-04          0.347457816042265E-03          0.696709981238368E-03
  |   14         -0.197153392177603E-04         -0.528694137590613E-03         -0.274141668738765E-03
  |   15          0.147086708235484E-01         -0.153270996531555E-01         -0.149746617780016E-01
  |   16         -0.153813780171266E-01         -0.159106566132601E-01         -0.155558691254047E-01


------------------------------------------------------------------------------
  Final output of selected total energy values:

  The following output summarizes some interesting total energy values
  at the end of a run (AFTER all relaxation, molecular dynamics, etc.).

  | Total energy of the DFT / Hartree-Fock s.c.f. calculation      :       -2731434.643967326 eV
  | Final zero-broadening corrected energy (caution - metals only) :       -2731434.643967326 eV
  | For reference only, the value of 1 Hartree used in FHI-aims is :             27.211384500 eV
  | For reference only, the overall average (free atom contribution
  | + realspace contribution) of the electrostatic potential after
  | s.c.f. convergence is                                          :            -13.745216046 eV

  Before relying on these values, please be sure to understand exactly which
  total energy value is referred to by a given number. Different objects may
  all carry the same name 'total energy'. Definitions:

  Total energy of the DFT / Hartree-Fock s.c.f. calculation:
  | Note that this energy does not include ANY quantities calculated after the
  | s.c.f. cycle, in particular not ANY RPA, MP2, etc. many-body perturbation terms.

  Final zero-broadening corrected energy:
  | For metallic systems only, a broadening of the occupation numbers at the Fermi
  | level can be extrapolated back to zero broadening by an electron-gas inspired
  | formula. For all systems that are not real metals, this value can be
  | meaningless and should be avoided.

------------------------------------------------------------------------------
  Methods described in the following list of references were used in this FHI-aims run.
  If you publish the results, please make sure to cite these reference if they apply.
  FHI-aims is an academic code, and for our developers (often, Ph.D. students
  and postdocs), scientific credit in the community is essential.
  Thank you for helping us!

  For any use of FHI-aims, please cite:

    Volker Blum, Ralf Gehrke, Felix Hanke, Paula Havu, Ville Havu,
    Xinguo Ren, Karsten Reuter, and Matthias Scheffler
    'Ab initio molecular simulations with numeric atom-centered orbitals'
    Computer Physics Communications 180, 2175-2196 (2009)
    http://doi.org/10.1016/j.cpc.2009.06.022


  The provided symmetry information was generated with SPGlib:

    Atsushi Togo, Yusuke Seto, Dimitar Pashov
    SPGlib 1.7.3 obtained from http://spglib.sourceforge.net
    Copyright (C) 2008 Atsushi Togo


  The ELSI infrastructure was used in your run to solve the Kohn-Sham electronic structure.
  Please check out http://elsi-interchange.org to learn more.
  If scalability is important for your project, please acknowledge ELSI by citing:

    V. W-z. Yu, F. Corsetti, A. Garcia, W. P. Huhn, M. Jacquelin, W. Jia,
    B. Lange, L. Lin, J. Lu, W. Mi, A. Seifitokaldani, A. Vazquez-Mayagoitia,
    C. Yang, H. Yang, and V. Blum
    'ELSI: A unified software interface for Kohn-Sham electronic structure solvers'
    Computer Physics Communications 222, 267-285 (2018).
    http://doi.org/10.1016/j.cpc.2017.09.007


  For the real-space grid partitioning and parallelization used in this calculation, please cite:

    Ville Havu, Volker Blum, Paula Havu, and Matthias Scheffler,
    'Efficient O(N) integration for all-electron electronic structure calculation'
    'using numerically tabulated basis functions'
    Journal of Computational Physics 228, 8367-8379 (2009).
    http://doi.org/10.1016/j.jcp.2009.08.008

  Of course, there are many other important community references, e.g., those cited in the
  above references. Our list is limited to references that describe implementations in the
  FHI-aims code. The reason is purely practical (length of this list) - please credit others as well.

 * A warning was issued further up regarding the accuracy of onsite integrals.
   An integral with a negative eigenvalue was among the flagged integrals.
   In most standard situations, this warning is probably harmless.
   If needed, this can be verified by adjusting the radial_multiplier flag.

------------------------------------------------------------
          Leaving FHI-aims.
          Date     :  20230702, Time     :  135654.732

          Computational steps:
          | Number of self-consistency cycles          :           15
          | Number of SCF (re)initializations          :            1

          Detailed time accounting                     :  max(cpu_time)    wall_clock(cpu1)
          | Total time                                  :      111.654 s         111.829 s
          | Preparation time                            :        0.254 s           0.254 s
          | Boundary condition initalization            :        0.184 s           0.184 s
          | Grid partitioning                           :        0.380 s           0.380 s
          | Preloading free-atom quantities on grid     :        0.526 s           0.526 s
          | Free-atom superposition energy              :        0.118 s           0.118 s
          | Total time for integrations                 :       16.559 s          16.562 s
          | Total time for solution of K.-S. equations  :       27.043 s          27.045 s
          | Total time for density & force components   :       27.176 s          27.177 s
          | Total time for mixing & preconditioning     :        3.993 s           3.991 s
          | Total time for Hartree multipole update     :        0.074 s           0.096 s
          | Total time for Hartree multipole sum        :       31.822 s          31.819 s
          | Total time for total energy evaluation      :        0.012 s           0.007 s
          | Total time NSC force correction             :        3.578 s           3.578 s
          | Total time for scaled ZORA corrections      :        0.000 s           0.000 s

          Partial memory accounting:
          | Residual value for overall tracked memory usage across tasks:     0.000000 MB (should be 0.000000 MB)
          | Peak values for overall tracked memory usage:
          |   Minimum:       88.237 MB (on task 0 after allocating eval_tmp)
          |   Maximum:       88.237 MB (on task 0 after allocating eval_tmp)
          |   Average:       88.237 MB
          | Largest tracked array allocation:
          |   Minimum:       46.107 MB (KS_eigenvector_complex on task 0)
          |   Maximum:       46.107 MB (KS_eigenvector_complex on task 0)
          |   Average:       46.107 MB
          Note:  These values currently only include a subset of arrays which are explicitly tracked.
          The "true" memory usage will be greater.

          Have a nice day.
------------------------------------------------------------
