------------------------------------------------------------
          Invoking FHI-aims ...

          When using FHI-aims, please cite the following reference:

            Volker Blum, Ralf Gehrke, Felix Hanke, Paula Havu,
            Ville Havu, Xinguo Ren, Karsten Reuter, and Matthias Scheffler,
            'Ab Initio Molecular Simulations with Numeric Atom-Centered Orbitals',
            Computer Physics Communications 180, 2175-2196 (2009)

          In addition, many other developments in FHI-aims are likely important for
          your particular application. A partial list of references is given at the end of
          this file. Thank you for giving credit to the authors of these developments.

          For any questions about FHI-aims, please visit our slack channel at

            https://fhi-aims.slack.com

          and our main development and support site at

            https://aims-git.rz-berlin.mpg.de .

          The latter site, in particular, has a wiki to collect information, as well
          as an issue tracker to log discussions, suggest improvements, and report issues
          or bugs. https://aims-git.rz-berlin.mpg.de is also the main development site
          of the project and all new and updated code versions can be obtained there.
          Please send an email to aims-coordinators@fhi-berlin.mpg.de and we will add
          you to these sites. They are for you and everyone is welcome there.

------------------------------------------------------------



  Date     :  20230816, Time     :  133948.308
  Time zero on CPU 1             :   0.232714000000000E+00  s.
  Internal wall clock time zero  :           461425188.308  s.

  FHI-aims created a unique identifier for this run for later identification
  aims_uuid : AEC26DF4-ABF2-414C-A3C5-2ACD6FC323C1

  Build configuration of the current instance of FHI-aims
  -------------------------------------------------------
  FHI-aims version      : 220619
  Commit number         : ad4f367e7
  CMake host system     : Linux-5.4.0-122-generic
  CMake version         : 3.16.3
  Fortran compiler      : /opt/intel/oneapi/mpi/2021.5.1/bin/mpiifort (Intel) version 20.2.5.20211109
  Fortran compiler flags: -O3 -ip -fp-model precise
  C compiler            : /opt/intel/oneapi/compiler/2022.0.2/linux/bin/intel64/icc (Intel) version 20.2.5.20211109
  C compiler flags      : -O3 -ip -fp-model precise -std=gnu99
  ELPA2 kernel          : AVX2
  Using MPI
  Using ScaLAPACK
  Using LibXC
  Using i-PI
  Using RLSY
  Linking against: /opt/intel/oneapi/mkl/2022.1.0/lib/intel64/libmkl_intel_lp64.so
                   /opt/intel/oneapi/mkl/2022.1.0/lib/intel64/libmkl_sequential.so
                   /opt/intel/oneapi/mkl/2022.1.0/lib/intel64/libmkl_core.so
                   /opt/intel/oneapi/mkl/2022.1.0/lib/intel64/libmkl_blacs_intelmpi_lp64.so
                   /opt/intel/oneapi/mkl/2022.1.0/lib/intel64/libmkl_scalapack_lp64.so

  Using        6 parallel tasks.
  Task        0 on host c21000127-lnx reporting.
  Task        1 on host c21000127-lnx reporting.
  Task        2 on host c21000127-lnx reporting.
  Task        3 on host c21000127-lnx reporting.
  Task        4 on host c21000127-lnx reporting.
  Task        5 on host c21000127-lnx reporting.

  Performing system and environment tests:
  *** Environment variable OMP_NUM_THREADS is not set
  *** For performance reasons you might want to set it to 1
  | Checking for ScaLAPACK...
  | Testing pdtran()...
  | All pdtran() tests passed.

  Obtaining array dimensions for all initial allocations:
  
  -----------------------------------------------------------------------
  Parsing control.in (first pass over file, find array dimensions only).
  The contents of control.in will be repeated verbatim below
  unless switched off by setting 'verbatim_writeout .false.' .
  in the first line of control.in .
  -----------------------------------------------------------------------
  
  #  for production level calculation use tight basis set
  xc                                 pbe
  spin                               none
  k_grid                             8 8 8
  sc_accuracy_rho                    1e-07
  relativistic                       atomic_zora scalar
  output_level                       MD_light
  sc_accuracy_forces                 1E-6
  sc_iter_limit                      100
  KS_method serial
  output polarization                1 20 20 20
  ################################################################################
  #
  #  FHI-aims code project
  #  VB, Fritz-Haber Institut, 2009
  #
  #  Suggested "light" defaults for Cd atom (to be pasted into control.in file)
  #  Be sure to double-check any results obtained with these settings for post-processing,
  #  e.g., with the "tight" defaults and larger basis sets.
  #
  ################################################################################
    species        Cd
  #     global species definitions
      nucleus             48
      mass                112.411
  #
      l_hartree           4
  #
      cut_pot             3.5  1.5  1.0
      basis_dep_cutoff    1e-4
  #
      radial_base         62 5.0
      radial_multiplier   1
      angular_grids specified
        division   0.5937   50
        division   1.0282  110
        division   1.3769  194
        division   1.7301  302
  #      division   2.2341  434
  #      division   2.2741  590
  #      division   2.3152  770
  #      division   2.3574  974
  #      division   2.9077 1202
  #      outer_grid  974
        outer_grid  302
  ################################################################################
  #
  #  Definition of "minimal" basis
  #
  ################################################################################
  #     valence basis states
      valence      5  s   2.
      valence      4  p   6.
      valence      4  d  10.
  #     ion occupancy
      ion_occ     5  s   1.
      ion_occ     4  p   6.
      ion_occ     4  d   9.
  ################################################################################
  #
  #  Suggested additional basis functions. For production calculations,
  #  uncomment them one after another (the most important basis functions are
  #  listed first).
  #
  #  Constructed for dimers: 2.15 A, 2.50 A, 3.10 A, 4.00 A, 5.00 A
  #
  ################################################################################
  #  "First tier" - max. impr. -224.92  meV, min. impr. -5.81 meV
       hydro 2 p 1.6
       hydro 4 f 7
       hydro 3 s 2.8
       hydro 3 p 5.2
  #     hydro 5 g 10.0
       hydro 3 d 3.8
  #  "Second tier" - max. impr. -2.57  meV, min. impr. -0.38 meV
  #     hydro 4 f 17.6
  #     hydro 6 h 13.6
  #     hydro 3 p 7
  #     hydro 5 s 17.6
  #     hydro 3 d 3.4
  #  "Third tier" - max. impr. -0.37 meV, min. impr. -0.09 meV
  #     hydro 3 p 2.4
  #     hydro 4 f 6.4
  #     hydro 4 s 4
  #     hydro 5 f 15.6
  #     hydro 5 g 10.8
  #     hydro 2 p 6.4
  #     hydro 6 h 12.8
  #     hydro 5 d 9.0
  #  Further functions: -0.05 meV and below
  #     hydro 5 d 5.8
  ################################################################################
  #
  #  FHI-aims code project
  #  VB, Fritz-Haber Institut, 2009
  #
  #  Suggested "light" defaults for Te atom (to be pasted into control.in file)
  #  Be sure to double-check any results obtained with these settings for post-processing,
  #  e.g., with the "tight" defaults and larger basis sets.
  #
  #  2020/09/22 Added f function to light settings to improve bulk properties of In-I.
  #
  ################################################################################
    species        Te
  #     global species definitions
      nucleus             52
      mass                127.60
  #
      l_hartree           4
  #
      cut_pot             3.5  1.5  1.0
      basis_dep_cutoff    1e-4
  #
      radial_base         64 5.0
      radial_multiplier   1
      angular_grids specified
        division   0.1259  110
        division   0.8959  194
        division   0.9864  302
  #      division   1.1196  434
  #      division   1.1922  590
  #      division   1.3098  770
  #      division   2.9404  974
  #      outer_grid  974
        outer_grid  302
  ################################################################################
  #
  #  Definition of "minimal" basis
  #
  ################################################################################
  #     valence basis states
      valence      5  s   2.
      valence      5  p   4.
      valence      4  d  10.
  #     ion occupancy
      ion_occ     5  s   1.
      ion_occ     5  p   3.
      ion_occ     4  d  10.
  ################################################################################
  #
  #  Suggested additional basis functions. For production calculations,
  #  uncomment them one after another (the most important basis functions are
  #  listed first).
  #
  #  Constructed for dimers: 2.15 A, 2.55 A, 3.10 A, 3.60 A, 4.50 A
  #
  ################################################################################
  #  "First tier" - max. impr. -217.34  meV, min. impr. -22.97 meV
       hydro 3 d 3.7
       hydro 4 f 6
       hydro 3 p 2.7
       ionic 5 s auto
  #  "Second tier" - max. impr. -17.80 meV, min. impr. -0.57 meV
  #     hydro 5 g 9
  #     hydro 4 f 16.4
  #     hydro 6 h 12
  #     hydro 4 p 6.4
  #     hydro 5 f 32.4
  #     hydro 4 d 5
  #     hydro 3 s 2.8
  #  "Third tier" - max. impr. -0.51 meV, min. impr. -0.06 meV
  #     hydro 5 f 8.4
  #     hydro 5 g 11.6
  #     hydro 6 h 15.6
  #     hydro 2 p 1.7
  #     hydro 4 d 9.6
  #     hydro 1 s 6.4
  #  Further functions that fell out of the optimization: -0.17 meV and below
  #     hydro 4 f 33.6
  #     hydro 5 d 6.8
  #     hydro 5 f 16
  
  -----------------------------------------------------------------------
  Completed first pass over input file control.in .
  -----------------------------------------------------------------------
  
  
  -----------------------------------------------------------------------
  Parsing geometry.in (first pass over file, find array dimensions only).
  The contents of geometry.in will be repeated verbatim below
  unless switched off by setting 'verbatim_writeout .false.' .
  in the first line of geometry.in .
  -----------------------------------------------------------------------
  
  #=======================================================
  # FHI-aims file: geometry.in
  # Created using the Atomic Simulation Environment (ASE)
  # Wed Aug 16 12:47:57 2023
  #=======================================================
  lattice_vector -0.0000034000000000 6.4845870400000001 6.4845888000000000
  lattice_vector 6.4845944800000002 0.0000045400000000 6.4845932399999997
  lattice_vector 6.4846015799999996 6.4845985600000002 0.0000063400000000
  atom 6.4846040765397026 6.4845986248282488 0.0000448908768529 Cd
  atom 6.4846023765397032 9.7268921448282484 3.2423392908768527 Cd
  atom 9.7269013165397027 6.4846008948282492 3.2423415108768530 Cd
  atom 9.7268996165397024 9.7268944148282479 6.4846359108768521 Cd
  atom 3.2423032865397032 3.2422993448282487 0.0000417208768529 Cd
  atom 3.2423015865397029 6.4845928648282483 3.2423361208768524 Cd
  atom 6.4846005265397029 3.2423016148282486 3.2423383408768527 Cd
  atom 6.4845988265397034 6.4845951348282487 6.4846327408768518 Cd
  atom 4.8634447509602952 4.8634462376717513 4.8634070916231469 Te
  atom 4.9551489727889502 8.1057397576717509 8.1057014916231473 Te
  atom 8.1057419909602952 4.8634485076717517 8.1057037116231481 Te
  atom 8.1057402909602949 8.1057420276717504 11.3479981116231485 Te
  atom 8.1057455409602959 8.1057455176717514 4.8634102616231472 Te
  atom 8.1057438409602955 11.3480390376717519 8.1057046616231467 Te
  atom 11.3480427809602951 8.1057477876717510 8.1057068816231475 Te
  atom 11.3480410809602947 11.3480413076717515 11.3480012816231479 Te
  
  -----------------------------------------------------------------------
  Completed first pass over input file geometry.in .
  -----------------------------------------------------------------------
  

  Basic array size parameters:
  | Number of species                 :        2
  | Number of atoms                   :       16
  | Number of lattice vectors         :        3
  | Max. basis fn. angular momentum   :        3
  | Max. atomic/ionic basis occupied n:        5
  | Max. number of basis fn. types    :        3
  | Max. radial fns per species/type  :       11
  | Max. logarithmic grid size        :     1454
  | Max. radial integration grid size :       64
  | Max. angular integration grid size:      302
  | Max. angular grid division number :        8
  | Radial grid for Hartree potential :     1454
  | Number of spin channels           :        1

------------------------------------------------------------
          Reading file control.in.
------------------------------------------------------------
  XC: Using PBE gradient-corrected functionals.
  Spin treatment: No spin polarisation.
  Found k-point grid:         8         8         8
  Convergence accuracy of self-consistent charge density:  0.1000E-06
  Scalar relativistic treatment of kinetic energy: on-site free-atom approximation to ZORA.
  Requested output level: MD_light
  Convergence accuracy of forces:  0.1000E-05
  Maximum number of s.-c. iterations  :   100
  Kohn-Sham eigenvalues and eigenfunctions calculated by LAPACK via ELSI.

  Polarization directive number:    1
  | Calculating polarization along reciprocal lattice vector 1 using   20 k-points parallel to this direction.
  | Full Brillouin zone sampling is thus performed on a    20 x    20 x    20 grid
 
  Reading configuration options for species Cd                  .
  | Found nuclear charge :  48.0000
  | Found atomic mass :    112.411000000000      amu
  | Found l_max for Hartree potential  :   4
  | Found cutoff potl. onset [A], width [A], scale factor :    3.50000    1.50000    1.00000
  | Threshold for basis-dependent cutoff potential is   0.100000E-03
  | Found data for basic radial integration grid :    62 points, outermost radius =    5.000 A
  | Found multiplier for basic radial grid :   1
  | Found angular grid specification: user-specified.
  | Specified grid contains     5 separate shells.
  | Check grid settings after all constraints further below.
  | Found free-atom valence shell :  5 s   2.000
  | Found free-atom valence shell :  4 p   6.000
  | Found free-atom valence shell :  4 d  10.000
  | Found free-ion valence shell :  5 s   1.000
  | Found free-ion valence shell :  4 p   6.000
  | Found free-ion valence shell :  4 d   9.000
  | Found hydrogenic basis function :  2 p   1.600
  | Found hydrogenic basis function :  4 f   7.000
  | Found hydrogenic basis function :  3 s   2.800
  | Found hydrogenic basis function :  3 p   5.200
  | Found hydrogenic basis function :  3 d   3.800
  Species Cd                  : Missing cutoff potential type.
  Defaulting to exp(1/x)/(1-x)^2 type cutoff potential.
  Species Cd: No 'logarithmic' tag. Using default grid for free atom:
  | Default logarithmic grid data [bohr] : 0.1000E-03 0.1000E+03 0.1012E+01
  Species Cd: On-site basis accuracy parameter (for Gram-Schmidt orthonormalisation) not specified.
  Using default value basis_acc =  0.1000000E-03.
  Species Cd                  : Using default innermost maximum threshold i_radial=  2 for radial functions.
  Species Cd                  : Default cutoff onset for free atom density etc. : 0.35000000E+01 AA.
  Species Cd                  : Basic radial grid will be enhanced according to radial_multiplier =   1, to contain    62 grid points.
 
  Reading configuration options for species Te                  .
  | Found nuclear charge :  52.0000
  | Found atomic mass :    127.600000000000      amu
  | Found l_max for Hartree potential  :   4
  | Found cutoff potl. onset [A], width [A], scale factor :    3.50000    1.50000    1.00000
  | Threshold for basis-dependent cutoff potential is   0.100000E-03
  | Found data for basic radial integration grid :    64 points, outermost radius =    5.000 A
  | Found multiplier for basic radial grid :   1
  | Found angular grid specification: user-specified.
  | Specified grid contains     4 separate shells.
  | Check grid settings after all constraints further below.
  | Found free-atom valence shell :  5 s   2.000
  | Found free-atom valence shell :  5 p   4.000
  | Found free-atom valence shell :  4 d  10.000
  | Found free-ion valence shell :  5 s   1.000
  | Found free-ion valence shell :  5 p   3.000
  | Found free-ion valence shell :  4 d  10.000
  | Found hydrogenic basis function :  3 d   3.700
  | Found hydrogenic basis function :  4 f   6.000
  | Found hydrogenic basis function :  3 p   2.700
  | Found ionic basis function :  5 s , default cutoff radius.
  Species Te                  : Missing cutoff potential type.
  Defaulting to exp(1/x)/(1-x)^2 type cutoff potential.
  Species Te: No 'logarithmic' tag. Using default grid for free atom:
  | Default logarithmic grid data [bohr] : 0.1000E-03 0.1000E+03 0.1012E+01
  | Will include ionic basis functions of  2.0-fold positive Te                   ion.
  Species Te: On-site basis accuracy parameter (for Gram-Schmidt orthonormalisation) not specified.
  Using default value basis_acc =  0.1000000E-03.
  Species Te                  : Using default innermost maximum threshold i_radial=  2 for radial functions.
  Species Te                  : Default cutoff onset for free atom density etc. : 0.35000000E+01 AA.
  Species Te                  : Basic radial grid will be enhanced according to radial_multiplier =   1, to contain    64 grid points.
 
  Finished reading input file 'control.in'.
 
------------------------------------------------------------


------------------------------------------------------------
          Reading geometry description geometry.in.
------------------------------------------------------------
  | The smallest distance between any two atoms is         2.75593734 AA.
  | The first atom of this pair is atom number                      8 .
  | The second atom of this pair is atom number                    10 .
  | Wigner-Seitz cell of the first atom image           0     1     0 .
  | (The Wigner-Seitz cell of the second atom is 0 0 0  by definition.)

  Symmetry information by spglib:
  | Precision set to  0.1E-04
  | Number of Operations  : 1
  | Space group           : 1
  | International         : P1 K
  | Schoenflies           : C1^1
  Input structure read successfully.
  The structure contains       16 atoms,  and a total of        800.000 electrons.

  Input geometry:
  | Unit cell:
  |       -0.00000340        6.48458704        6.48458880
  |        6.48459448        0.00000454        6.48459324
  |        6.48460158        6.48459856        0.00000634
  | Atomic structure:
  |       Atom                x [A]            y [A]            z [A]
  |    1: Species Cd            6.48460408        6.48459862        0.00004489
  |    2: Species Cd            6.48460238        9.72689214        3.24233929
  |    3: Species Cd            9.72690132        6.48460089        3.24234151
  |    4: Species Cd            9.72689962        9.72689441        6.48463591
  |    5: Species Cd            3.24230329        3.24229934        0.00004172
  |    6: Species Cd            3.24230159        6.48459286        3.24233612
  |    7: Species Cd            6.48460053        3.24230161        3.24233834
  |    8: Species Cd            6.48459883        6.48459513        6.48463274
  |    9: Species Te            4.86344475        4.86344624        4.86340709
  |   10: Species Te            4.95514897        8.10573976        8.10570149
  |   11: Species Te            8.10574199        4.86344851        8.10570371
  |   12: Species Te            8.10574029        8.10574203       11.34799811
  |   13: Species Te            8.10574554        8.10574552        4.86341026
  |   14: Species Te            8.10574384       11.34803904        8.10570466
  |   15: Species Te           11.34804278        8.10574779        8.10570688
  |   16: Species Te           11.34804108       11.34804131       11.34800128

  Lattice parameters for 3D lattice (in Angstroms) :     9.170592    9.170601    9.170609
  Angle(s) between unit vectors (in degrees)       :    59.999934   59.999997   59.999993


  Quantities derived from the lattice vectors (in Angstrom^-1):
  | Reciprocal lattice vector 1: -0.484471  0.484471  0.484471
  | Reciprocal lattice vector 2:  0.484470 -0.484471  0.484471
  | Reciprocal lattice vector 3:  0.484470  0.484470 -0.484470
  | Unit cell volume                               :   0.545354E+03  Angstrom^3

 
  Finished reading input file 'geometry.in'.
 

 
  Consistency checks for stacksize environment parameter are next.
 
  | Maximum stacksize for task 0: unlimited
  | Maximum stacksize for task 1: unlimited
  | Maximum stacksize for task 2: unlimited
  | Maximum stacksize for task 3: unlimited
  | Maximum stacksize for task 4: unlimited
  | Maximum stacksize for task 5: unlimited
  | Current stacksize for task 0: unlimited
  | Current stacksize for task 1: unlimited
  | Current stacksize for task 2: unlimited
  | Current stacksize for task 3: unlimited
  | Current stacksize for task 4: unlimited
  | Current stacksize for task 5: unlimited
 
  Consistency checks for the contents of control.in are next.
 
  MPI_IN_PLACE appears to work with this MPI implementation.
  | Keeping use_mpi_in_place .true. (see manual).
  Target number of points in a grid batch is not set. Defaulting to  100
  Method for grid partitioning is not set. Defaulting to parallel hash+maxmin partitioning.
  Batch size limit is not set. Defaulting to    200
  By default, will store active basis functions for each batch.
  If in need of memory, prune_basis_once .false. can be used to disable this option.
  communication_type for Hartree potential was not specified.
  Defaulting to calc_hartree .
  Defaulting to Pulay charge density mixer.
  Pulay mixer: Number of relevant iterations not set.
  Defaulting to    8 iterations.
  Pulay mixer: Number of initial linear mixing iterations not set.
  Defaulting to    0 iterations.
  Work space size for distributed Hartree potential not set.
  Defaulting to   0.200000E+03 MB.
  Mixing parameter for charge density mixing has not been set.
  Using default: charge_mix_param =     0.0500.
  The mixing parameter will be adjusted in iteration number     2 of the first full s.c.f. cycle only.
  Algorithm-dependent basis array size parameters:
  | n_max_pulay                         :        8
  Presetting      1001 iterations before the initial mixing cycle
  is restarted anyway using the sc_init_iter criterion / keyword.
  Presetting a factor      1.000 between actual scf density residual
  and density convergence criterion sc_accuracy_rho below which sc_init_iter
  takes no effect.
  Geometry relaxation not requested: no relaxation will be performed.
  Forces evaluation will include force correction term due to incomplete self-consistency (default).
  Handling of forces: Unphysical translation and rotation will be removed from forces.
  No accuracy limit for integral partition fn. given. Defaulting to  0.1000E-14.
  No threshold value for u(r) in integrations given. Defaulting to  0.1000E-05.
  No occupation type (smearing scheme) given. Defaulting to Gaussian broadening, width =  0.1000E-01 eV.
  The width will be adjusted in iteration number     2 of the first full s.c.f. cycle only.
  S.C.F. convergence parameters will be adjusted in iteration number     2 of the first full s.c.f. cycle only.
  No accuracy for occupation numbers given. Defaulting to  0.1000E-12.
  No threshold value for occupation numbers given. Defaulting to  0.0000E+00.
  No accuracy for fermi level given. Defaulting to  0.1000E-19.
  Maximum # of iterations to find E_F not set. Defaulting to  200.
  Will not use alltoall communication since running on < 1024 CPUs.
  Threshold for basis singularities not set.
  Default threshold for basis singularities:  0.1000E-04
  partition_type (choice of integration weights) for integrals was not specified.
  | Using a version of the partition function of Stratmann and coworkers ('stratmann_sparse').
  | At each grid point, the set of atoms used to build the partition table is smoothly restricted to
  | only those atoms whose free-atom density would be non-zero at that grid point.
  Partitioning for Hartree potential was not defined. Using partition_type for integrals.
  | Adjusted default value of keyword multip_moments_threshold to:       0.10000000E-11
  | This value may affect high angular momentum components of the Hartree potential in periodic systems.
  Angular momentum expansion for Kerker preconditioner not set explicitly.
  | Using default value of   0
  No explicit requirement for turning off preconditioner.
  | By default, it will be turned off when the charge convergence reaches
  | sc_accuracy_rho  =   0.100000E-06
  No special mixing parameter while Kerker preconditioner is on.
  Using default: charge_mix_param =     0.0500.
  No q(lm)/r^(l+1) cutoff set for long-range Hartree potential.
  | Using default value of  0.100000E-09 .
  | Verify using the multipole_threshold keyword.
  Defaulting to new monopole extrapolation.
  Density update method: automatic selection selected.
  Using density matrix based charge density update.
  Using density matrix based charge density update.
  Using packed matrix style: index .
  Defaulting to use time-reversal symmetry for k-point grid.
  Charge integration errors on the 3D integration grid will be compensated
  by explicit normalization and distribution of residual charges.
  Use the "compensate_multipole_errors" flag to change this behaviour.
  Set 'collect_eigenvectors' to be '.true.' for all serial calculations. This is mandatory.
  Set 'collect_eigenvectors' to be '.true.' for KS_method lapack_fast and serial.
 
  Consistency checks for the contents of geometry.in are next.
 

  Range separation radius for Ewald summation (hartree_convergence_parameter):      4.70785872 bohr.
  Number of empty states per atom not set in control.in - providing a guess from actual geometry.
  | Total number of empty states used during s.c.f. cycle:       88
  If you use a very high smearing, use empty_states (per atom!) in control.in to increase this value.

  Structure-dependent array size parameters: 
  | Maximum number of distinct radial functions  :       30
  | Maximum number of basis functions            :      688
  | Number of Kohn-Sham states (occupied + empty):      488
------------------------------------------------------------

------------------------------------------------------------
          Preparing all fixed parts of the calculation.
------------------------------------------------------------
  Determining machine precision:
    2.225073858507201E-308
  Setting up grids for atomic and cluster calculations.

  Creating wave function, potential, and density for free atoms.
  Runtime choices for atomic solver:
  | atomic solver xc        : PBE
  | compute density gradient: 1
  | compute kinetic density : F

  Species: Cd

  List of occupied orbitals and eigenvalues:
    n    l              occ      energy [Ha]    energy [eV]
    1    0           2.0000     -1004.952228    -27346.1415
    2    0           2.0000      -145.510972     -3959.5550
    3    0           2.0000       -26.992512      -734.5036
    4    0           2.0000        -3.884870      -105.7127
    5    0           2.0000        -0.201683        -5.4881
    2    1           6.0000      -130.512119     -3551.4155
    3    1           6.0000       -22.104944      -601.5061
    4    1           6.0000        -2.453065       -66.7513
    3    2          10.0000       -14.470763      -393.7695
    4    2          10.0000        -0.424797       -11.5593


  Species: Te

  List of occupied orbitals and eigenvalues:
    n    l              occ      energy [Ha]    energy [eV]
    1    0           2.0000     -1205.190120    -32794.8918
    2    0           2.0000      -179.429385     -4882.5220
    3    0           2.0000       -35.510100      -966.2790
    4    0           2.0000        -6.032854      -164.1623
    5    0           2.0000        -0.548847       -14.9349
    2    1           6.0000      -160.991388     -4380.7986
    3    1           6.0000       -29.564605      -804.4938
    4    1           6.0000        -4.195319      -114.1604
    5    1           4.0000        -0.212579        -5.7846
    3    2          10.0000       -20.595582      -560.4343
    4    2          10.0000        -1.523481       -41.4560


  Adding cutoff potential to free-atom effective potential.
  Creating fixed part of basis set: Ionic, confined, hydrogenic.
 
  Cd                   hydrogenic:
 
  List of hydrogenic basis orbitals: 
    n    l      effective z      eigenvalue [eV]  inner max. [A]     outer max. [A]     outer radius [A]   
    2    1         1.600000        -8.6069           1.306574           1.306574           4.602417
    4    3         7.000000       -41.6658           1.214167           1.214167           4.546495
    3    0         2.800000       -11.1322           0.139490           2.349512           4.602417
    3    1         5.200000       -40.8769           0.305024           1.214167           4.491253
    3    2         3.800000       -21.8139           1.259523           1.259523           4.546495
 
 
  Te                   ion:

  List of free ionic orbitals and eigenvalues:
    n    l      energy [Ha]    energy [eV]
    1    0     -1206.001395    -32816.9677
    2    0      -180.213456     -4903.8576
    3    0       -36.289734      -987.4939
    4    0        -6.806662      -185.2187
    5    0        -1.230780       -33.4912
    2    1      -161.775412     -4402.1329
    3    1       -30.344117      -825.7054
    4    1        -4.968097      -135.1888
    5    1        -0.843350       -22.9487
    3    2       -21.374869      -581.6398
    4    2        -2.290936       -62.3395


  List of ionic basis orbitals and eigenvalues:
    n    l      energy [Ha]    energy [eV]    outer radius [A]
    5    0        -1.230763       -33.4908       4.045637

 
  Te                   hydrogenic:
 
  List of hydrogenic basis orbitals: 
    n    l      effective z      eigenvalue [eV]  inner max. [A]     outer max. [A]     outer radius [A]   
    3    2         3.700000       -20.6750           1.282089           1.282089           4.571717
    4    3         6.000000       -30.5978           1.413813           1.413813           4.571717
    3    1         2.700000       -10.4143           0.586309           2.249797           4.627949
 
  Creating atomic-like basis functions for current effective potential.

  Species Cd                  :

  List of atomic basis orbitals and eigenvalues:
    n    l      energy [Ha]    energy [eV]    outer radius [A]
    1    0     -1004.952228    -27346.1415       0.213976
    2    0      -145.510972     -3959.5550       0.583074
    3    0       -26.992512      -734.5036       1.338913
    4    0        -3.884870      -105.7127       3.308540
    5    0        -0.201683        -5.4881       4.602417
    2    1      -130.512119     -3551.4155       0.597506
    3    1       -22.104944      -601.5061       1.440814
    4    1        -2.453065       -66.7513       3.926140
    3    2       -14.470763      -393.7695       1.668472
    4    2        -0.424797       -11.5593       4.491253


  Species Te                  :

  List of atomic basis orbitals and eigenvalues:
    n    l      energy [Ha]    energy [eV]    outer radius [A]
    1    0     -1205.190120    -32794.8918       0.195117
    2    0      -179.429385     -4882.5220       0.531683
    3    0       -35.510100      -966.2790       1.176937
    4    0        -6.032854      -164.1623       2.735843
    5    0        -0.548847       -14.9349       4.516168
    2    1      -160.991388     -4380.7986       0.544843
    3    1       -29.564605      -804.4938       1.266511
    4    1        -4.195319      -114.1604       3.168123
    5    1        -0.212579        -5.7846       4.571717
    3    2       -20.595582      -560.4343       1.431203
    4    2        -1.523481       -41.4560       4.196765

  Assembling full basis from fixed parts.
  | Species Cd :   atomic orbital   1 s accepted.
  | Species Cd :   atomic orbital   2 s accepted.
  | Species Cd :   atomic orbital   3 s accepted.
  | Species Cd :   atomic orbital   4 s accepted.
  | Species Cd :   atomic orbital   5 s accepted.
  | Species Cd :    hydro orbital   3 s accepted.
  | Species Cd :   atomic orbital   2 p accepted.
  | Species Cd :   atomic orbital   3 p accepted.
  | Species Cd :   atomic orbital   4 p accepted.
  | Species Cd :    hydro orbital   3 p accepted.
  | Species Cd :    hydro orbital   2 p accepted.
  | Species Cd :   atomic orbital   3 d accepted.
  | Species Cd :   atomic orbital   4 d accepted.
  | Species Cd :    hydro orbital   3 d accepted.
  | Species Cd :    hydro orbital   4 f accepted.
  | Species Te :   atomic orbital   1 s accepted.
  | Species Te :   atomic orbital   2 s accepted.
  | Species Te :   atomic orbital   3 s accepted.
  | Species Te :   atomic orbital   4 s accepted.
  | Species Te :    ionic orbital   5 s accepted.
  | Species Te :   atomic orbital   5 s accepted.
  | Species Te :   atomic orbital   2 p accepted.
  | Species Te :   atomic orbital   3 p accepted.
  | Species Te :   atomic orbital   4 p accepted.
  | Species Te :   atomic orbital   5 p accepted.
  | Species Te :    hydro orbital   3 p accepted.
  | Species Te :   atomic orbital   3 d accepted.
  | Species Te :   atomic orbital   4 d accepted.
  | Species Te :    hydro orbital   3 d accepted.
  | Species Te :    hydro orbital   4 f accepted.
 
  Basis size parameters after reduction:
  | Total number of radial functions:       30
  | Total number of basis functions :      688
 
  Per-task memory consumption for arrays in subroutine allocate_ext:
  |          11.184208MB.
  Testing on-site integration grid accuracy.
  |  Species  Function  <phi|h_atom|phi> (log., in eV)  <phi|h_atom|phi> (rad., in eV)
           1        1             -27346.1414740300             -27346.0877548099 ***
           1        2              -3959.5550189636              -3959.5541934178
           1        3               -734.5036354788               -734.5036031563
           1        4               -105.7126932808               -105.7126908100
           1        5                 -5.4968462690                 -5.5039174565
           1        6                  6.2278835096                  6.1287984038 ***
           1        7              -3551.4154558044              -3551.4154537844
           1        8               -601.5061279336               -601.5061256530
           1        9                -66.7512841207                -66.7512830248
           1       10                  2.4482690991                  2.4481544936
           1       11                  8.5190814064                  8.4038211019 ***
           1       12               -393.7694963194               -393.7694957690
           1       13                -11.5593422264                -11.5593671337
           1       14                 11.6269145692                 11.6219408288
           1       15                 20.8349845303                 20.8345732567
           2       16             -32794.8917554015             -32794.8207624302 ***
           2       17              -4882.5219893742              -4882.5208489942
           2       18               -966.2789830371               -966.2789340972
           2       19               -164.1623014115               -164.1622982691
           2       20                -14.7555985338                -14.7557021640
           2       21                  5.4227913449                  5.4196149694
           2       22              -4380.7985727381              -4380.7985681865
           2       23               -804.4938282293               -804.4938244933
           2       24               -114.1604295167               -114.1604283512
           2       25                 -5.7898299384                 -5.7935051375
           2       26                  6.3964828067                  6.3136140479 ***
           2       27               -560.4343039286               -560.4343025566
           2       28                -41.4560249156                -41.4560244044
           2       29                  5.4171856940                  5.4128506235
           2       30                 13.3071223267                 13.3042615902
 * Note: Onsite integrals marked "***" above are less accurate than
 * onsite_accuracy_threshold =    0.03000 eV. Usually, this is harmless.
 * However, one integral did have a negative value. This integral could be important.
 * When in doubt, tighten the "radial" and/or "radial_multiplier" flags to check.

  Preparing densities etc. for the partition functions (integrals / Hartree potential).

  Preparations completed.
  max(cpu_time)          :      0.311 s.
  Wall clock time (cpu1) :      0.311 s.
------------------------------------------------------------

  Initializing index lists of integration centers etc. from given atomic structure:
  Mapping all atomic coordinates to central unit cell.

  Initializing the k-points
  Using symmetry for reducing the k-points
  | k-points reduced from:      512 to      260
  | Number of k-points                             :       260
  The eigenvectors in the calculations are COMPLEX.
  | K-points in task   0:        43
  | K-points in task   1:        44
  | K-points in task   2:        44
  | K-points in task   3:        43
  | K-points in task   4:        43
  | K-points in task   5:        43
  | Number of basis functions in the Hamiltonian integrals :      5377
  | Number of basis functions in a single unit cell        :       688
  | Number of centers in hartree potential         :      1106
  | Number of centers in hartree multipole         :       426
  | Number of centers in electron density summation:       313
  | Number of centers in basis integrals           :       360
  | Number of centers in integrals                 :       183
  | Number of centers in hamiltonian               :       314
  | Consuming        154 KiB for k_phase.
  | Number of super-cells (origin) [n_cells]                     :         343
  | Number of super-cells (after PM_index) [n_cells]             :          38
  | Number of super-cells in hamiltonian [n_cells_in_hamiltonian]:          38
  | Size of matrix packed + index [n_hamiltonian_matrix_size] :      794431

------------------------------------------------------------
          Begin self-consistency loop: Initialization.

          Date     :  20230816, Time     :  133948.881
------------------------------------------------------------
  | Estimated reciprocal-space cutoff momentum G_max:         1.96458638 bohr^-1 .
  | Reciprocal lattice points for long-range Hartree potential:     458
  Partitioning the integration grid into batches with parallel hashing+maxmin method.
  | Number of batches:     1981
  | Maximal batch size:     113
  | Minimal batch size:      49
  | Average batch size:      83.352
  | Standard deviation of batch sizes:      18.183

  Integration load balanced across     6 MPI tasks.
  Work distribution over tasks is as follows:
  Task     0 has      27547 integration points.
  Task     1 has      27537 integration points.
  Task     2 has      27476 integration points.
  Task     3 has      27512 integration points.
  Task     4 has      27537 integration points.
  Task     5 has      27511 integration points.
  Initializing partition tables, free-atom densities, potentials, etc. across the integration grid (initialize_grid_storage).
  | initialize_grid_storage: Actual outermost partition radius vs. multipole_radius_free
  | (-- VB: in principle, multipole_radius_free should be larger, hence this output)
  | Species        1: Confinement radius =              4.999999999999999 AA, multipole_radius_free =              5.013611646002804 AA.
  | Species        1: outer_partition_radius set to              5.013611646002804 AA .
  | Species        2: Confinement radius =              4.999999999999999 AA, multipole_radius_free =              5.041424710192624 AA.
  | Species        2: outer_partition_radius set to              5.041424710192624 AA .
  | The sparse table of interatomic distances needs        321.94 kbyte instead of      1036.80 kbyte of memory.
  | Net number of integration points:   165120
  | of which are non-zero points    :   156936
  | Numerical average free-atom electrostatic potential    :    -13.70679603 eV
  Renormalizing the initial density to the exact electron count on the 3D integration grid.
  | Initial density: Formal number of electrons (from input files) :     800.0000000000
  | Integrated number of electrons on 3D grid     :     800.0114913779
  | Charge integration error                      :       0.0114913779
  | Normalization factor for density and gradient :       0.9999856360
  Renormalizing the free-atom superposition density to the exact electron count on the 3D integration grid.
  | Formal number of electrons (from input files) :     800.0000000000
  | Integrated number of electrons on 3D grid     :     800.0114913779
  | Charge integration error                      :       0.0114913779
  | Normalization factor for density and gradient :       0.9999856360
  Obtaining max. number of non-zero basis functions in each batch (get_n_compute_maxes).
  | Maximal number of non-zero basis functions:      549 in task     0
  | Maximal number of non-zero basis functions:      554 in task     1
  | Maximal number of non-zero basis functions:      542 in task     2
  | Maximal number of non-zero basis functions:      571 in task     3
  | Maximal number of non-zero basis functions:      549 in task     4
  | Maximal number of non-zero basis functions:      557 in task     5
  Allocating      220.291 MB for KS_eigenvector_complex
  Integrating Hamiltonian matrix: batch-based integration.
  Time summed over all CPUs for integration: real work        5.618 s, elapsed        5.659 s
  Integrating overlap matrix.
  Time summed over all CPUs for integration: real work        3.753 s, elapsed        3.801 s
  Decreasing sparse matrix size:
  | Tolerance:  0.1000E-12
  Hamiltonian matrix
  | Array has   694911 nonzero elements out of   794431 elements
  | Sparsity factor is 0.125
  Overlap matrix
  | Array has   650704 nonzero elements out of   794431 elements
  | Sparsity factor is 0.181
  New size of hamiltonian matrix:      695237

  Updating Kohn-Sham eigenvalues and eigenvectors using ELSI and the (modified) LAPACK eigensolver.

  Obtaining occupation numbers and electronic chemical potential using ELSI.
  | Note that, for insulating systems, the printed 'chemical potential' value is not uniquely defined.
  | It can be anywhere in the energy gap, as long as it correctly separates occupied and unoccupied states.
  | In systems with a gap, the physically relevant chemical potential is the VBM or HOMO.

  | Chemical potential (Fermi level):    -4.70568404 eV
  Writing Kohn-Sham eigenvalues.
  K-point:       1 at    0.000000    0.000000    0.000000 (in units of recip. lattice)

  State    Occupation    Eigenvalue [Ha]    Eigenvalue [eV]
      1       2.00000       -1205.190838       -32794.91130
      2       2.00000       -1205.190781       -32794.90973
      3       2.00000       -1205.190781       -32794.90973
      4       2.00000       -1205.190781       -32794.90973
      5       2.00000       -1205.190781       -32794.90973
      6       2.00000       -1205.190781       -32794.90973
      7       2.00000       -1205.190781       -32794.90973
      8       2.00000       -1205.190781       -32794.90973
      9       2.00000       -1004.955015       -27346.21733
     10       2.00000       -1004.955015       -27346.21733
     11       2.00000       -1004.954755       -27346.21025
     12       2.00000       -1004.954755       -27346.21025
     13       2.00000       -1004.954755       -27346.21025
     14       2.00000       -1004.954755       -27346.21025
     15       2.00000       -1004.954534       -27346.20422
     16       2.00000       -1004.954534       -27346.20422
     17       2.00000        -179.432542        -4882.60790
     18       2.00000        -179.432484        -4882.60632
     19       2.00000        -179.432484        -4882.60632
     20       2.00000        -179.432484        -4882.60632
     21       2.00000        -179.432484        -4882.60632
     22       2.00000        -179.432484        -4882.60632
     23       2.00000        -179.432484        -4882.60632
     24       2.00000        -179.432484        -4882.60632
     25       2.00000        -160.994872        -4380.89337
     26       2.00000        -160.994869        -4380.89328
     27       2.00000        -160.994866        -4380.89321
     28       2.00000        -160.994811        -4380.89171
     29       2.00000        -160.994811        -4380.89171
     30       2.00000        -160.994811        -4380.89171
     31       2.00000        -160.994811        -4380.89171
     32       2.00000        -160.994811        -4380.89171
     33       2.00000        -160.994811        -4380.89171
     34       2.00000        -160.994811        -4380.89171
     35       2.00000        -160.994811        -4380.89171
     36       2.00000        -160.994811        -4380.89171
     37       2.00000        -160.994811        -4380.89171
     38       2.00000        -160.994811        -4380.89171
     39       2.00000        -160.994811        -4380.89171
     40       2.00000        -160.994811        -4380.89171
     41       2.00000        -160.994811        -4380.89171
     42       2.00000        -160.994811        -4380.89171
     43       2.00000        -160.994811        -4380.89171
     44       2.00000        -160.994811        -4380.89171
     45       2.00000        -160.994811        -4380.89171
     46       2.00000        -160.994811        -4380.89171
     47       2.00000        -160.994811        -4380.89171
     48       2.00000        -160.994811        -4380.89171
     49       2.00000        -145.515363        -3959.67450
     50       2.00000        -145.515363        -3959.67450
     51       2.00000        -145.515100        -3959.66735
     52       2.00000        -145.515100        -3959.66735
     53       2.00000        -145.515100        -3959.66735
     54       2.00000        -145.515100        -3959.66735
     55       2.00000        -145.514877        -3959.66126
     56       2.00000        -145.514876        -3959.66125
     57       2.00000        -130.516699        -3551.54008
     58       2.00000        -130.516699        -3551.54008
     59       2.00000        -130.516696        -3551.53999
     60       2.00000        -130.516696        -3551.53999
     61       2.00000        -130.516696        -3551.53999
     62       2.00000        -130.516695        -3551.53998
     63       2.00000        -130.516434        -3551.53288
     64       2.00000        -130.516434        -3551.53288
     65       2.00000        -130.516434        -3551.53288
     66       2.00000        -130.516434        -3551.53288
     67       2.00000        -130.516434        -3551.53288
     68       2.00000        -130.516434        -3551.53288
     69       2.00000        -130.516434        -3551.53288
     70       2.00000        -130.516434        -3551.53288
     71       2.00000        -130.516434        -3551.53288
     72       2.00000        -130.516434        -3551.53288
     73       2.00000        -130.516434        -3551.53288
     74       2.00000        -130.516434        -3551.53288
     75       2.00000        -130.516212        -3551.52683
     76       2.00000        -130.516212        -3551.52683
     77       2.00000        -130.516212        -3551.52683
     78       2.00000        -130.516212        -3551.52683
     79       2.00000        -130.516209        -3551.52675
     80       2.00000        -130.516209        -3551.52675
     81       2.00000         -35.513756         -966.37846
     82       2.00000         -35.513696         -966.37683
     83       2.00000         -35.513696         -966.37683
     84       2.00000         -35.513696         -966.37683
     85       2.00000         -35.513696         -966.37683
     86       2.00000         -35.513696         -966.37683
     87       2.00000         -35.513696         -966.37683
     88       2.00000         -35.513696         -966.37683
     89       2.00000         -29.568357         -804.59592
     90       2.00000         -29.568326         -804.59510
     91       2.00000         -29.568301         -804.59442
     92       2.00000         -29.568268         -804.59351
     93       2.00000         -29.568268         -804.59351
     94       2.00000         -29.568268         -804.59351
     95       2.00000         -29.568268         -804.59351
     96       2.00000         -29.568268         -804.59351
     97       2.00000         -29.568268         -804.59351
     98       2.00000         -29.568268         -804.59351
     99       2.00000         -29.568268         -804.59351
    100       2.00000         -29.568268         -804.59351
    101       2.00000         -29.568268         -804.59351
    102       2.00000         -29.568268         -804.59351
    103       2.00000         -29.568268         -804.59351
    104       2.00000         -29.568268         -804.59351
    105       2.00000         -29.568268         -804.59351
    106       2.00000         -29.568268         -804.59351
    107       2.00000         -29.568268         -804.59351
    108       2.00000         -29.568268         -804.59351
    109       2.00000         -29.568268         -804.59351
    110       2.00000         -29.568268         -804.59351
    111       2.00000         -29.568268         -804.59351
    112       2.00000         -29.568268         -804.59351
    113       2.00000         -26.997483         -734.63890
    114       2.00000         -26.997483         -734.63890
    115       2.00000         -26.997203         -734.63127
    116       2.00000         -26.997203         -734.63127
    117       2.00000         -26.997203         -734.63127
    118       2.00000         -26.997203         -734.63127
    119       2.00000         -26.996964         -734.62476
    120       2.00000         -26.996964         -734.62476
    121       2.00000         -22.109981         -601.64319
    122       2.00000         -22.109981         -601.64318
    123       2.00000         -22.109948         -601.64229
    124       2.00000         -22.109948         -601.64229
    125       2.00000         -22.109947         -601.64227
    126       2.00000         -22.109947         -601.64227
    127       2.00000         -22.109678         -601.63495
    128       2.00000         -22.109678         -601.63495
    129       2.00000         -22.109678         -601.63495
    130       2.00000         -22.109678         -601.63495
    131       2.00000         -22.109678         -601.63495
    132       2.00000         -22.109678         -601.63495
    133       2.00000         -22.109678         -601.63495
    134       2.00000         -22.109678         -601.63495
    135       2.00000         -22.109678         -601.63495
    136       2.00000         -22.109678         -601.63495
    137       2.00000         -22.109678         -601.63495
    138       2.00000         -22.109678         -601.63495
    139       2.00000         -22.109448         -601.62870
    140       2.00000         -22.109448         -601.62870
    141       2.00000         -22.109448         -601.62869
    142       2.00000         -22.109448         -601.62868
    143       2.00000         -22.109419         -601.62791
    144       2.00000         -22.109419         -601.62791
    145       2.00000         -20.599289         -560.53517
    146       2.00000         -20.599287         -560.53512
    147       2.00000         -20.599268         -560.53461
    148       2.00000         -20.599252         -560.53417
    149       2.00000         -20.599249         -560.53408
    150       2.00000         -20.599210         -560.53303
    151       2.00000         -20.599210         -560.53303
    152       2.00000         -20.599210         -560.53303
    153       2.00000         -20.599210         -560.53303
    154       2.00000         -20.599210         -560.53303
    155       2.00000         -20.599210         -560.53303
    156       2.00000         -20.599210         -560.53303
    157       2.00000         -20.599210         -560.53303
    158       2.00000         -20.599210         -560.53303
    159       2.00000         -20.599210         -560.53303
    160       2.00000         -20.599210         -560.53303
    161       2.00000         -20.599210         -560.53303
    162       2.00000         -20.599210         -560.53303
    163       2.00000         -20.599210         -560.53303
    164       2.00000         -20.599210         -560.53303
    165       2.00000         -20.599210         -560.53303
    166       2.00000         -20.599210         -560.53303
    167       2.00000         -20.599210         -560.53303
    168       2.00000         -20.599210         -560.53303
    169       2.00000         -20.599210         -560.53303
    170       2.00000         -20.599210         -560.53303
    171       2.00000         -20.599207         -560.53296
    172       2.00000         -20.599207         -560.53296
    173       2.00000         -20.599207         -560.53296
    174       2.00000         -20.599207         -560.53296
    175       2.00000         -20.599207         -560.53296
    176       2.00000         -20.599207         -560.53296
    177       2.00000         -20.599207         -560.53296
    178       2.00000         -20.599207         -560.53296
    179       2.00000         -20.599207         -560.53296
    180       2.00000         -20.599207         -560.53296
    181       2.00000         -20.599207         -560.53296
    182       2.00000         -20.599207         -560.53296
    183       2.00000         -20.599207         -560.53296
    184       2.00000         -20.599207         -560.53296
    185       2.00000         -14.475748         -393.90513
    186       2.00000         -14.475747         -393.90513
    187       2.00000         -14.475737         -393.90484
    188       2.00000         -14.475737         -393.90483
    189       2.00000         -14.475735         -393.90479
    190       2.00000         -14.475735         -393.90478
    191       2.00000         -14.475717         -393.90430
    192       2.00000         -14.475717         -393.90430
    193       2.00000         -14.475715         -393.90424
    194       2.00000         -14.475715         -393.90424
    195       2.00000         -14.475454         -393.89715
    196       2.00000         -14.475454         -393.89715
    197       2.00000         -14.475454         -393.89715
    198       2.00000         -14.475454         -393.89715
    199       2.00000         -14.475454         -393.89715
    200       2.00000         -14.475454         -393.89715
    201       2.00000         -14.475454         -393.89715
    202       2.00000         -14.475454         -393.89715
    203       2.00000         -14.475454         -393.89715
    204       2.00000         -14.475454         -393.89715
    205       2.00000         -14.475454         -393.89715
    206       2.00000         -14.475454         -393.89715
    207       2.00000         -14.475448         -393.89697
    208       2.00000         -14.475448         -393.89697
    209       2.00000         -14.475448         -393.89697
    210       2.00000         -14.475448         -393.89697
    211       2.00000         -14.475448         -393.89697
    212       2.00000         -14.475448         -393.89697
    213       2.00000         -14.475448         -393.89697
    214       2.00000         -14.475448         -393.89697
    215       2.00000         -14.475228         -393.89099
    216       2.00000         -14.475228         -393.89098
    217       2.00000         -14.475226         -393.89095
    218       2.00000         -14.475226         -393.89095
    219       2.00000         -14.475207         -393.89043
    220       2.00000         -14.475207         -393.89042
    221       2.00000         -14.475205         -393.89037
    222       2.00000         -14.475205         -393.89037
    223       2.00000         -14.475203         -393.89033
    224       2.00000         -14.475203         -393.89032
    225       2.00000          -6.037904         -164.29973
    226       2.00000          -6.037831         -164.29775
    227       2.00000          -6.037831         -164.29775
    228       2.00000          -6.037831         -164.29775
    229       2.00000          -6.037831         -164.29775
    230       2.00000          -6.037831         -164.29775
    231       2.00000          -6.037831         -164.29775
    232       2.00000          -6.037831         -164.29775
    233       2.00000          -4.200920         -114.31284
    234       2.00000          -4.200688         -114.30653
    235       2.00000          -4.200627         -114.30486
    236       2.00000          -4.200627         -114.30486
    237       2.00000          -4.200627         -114.30486
    238       2.00000          -4.200627         -114.30486
    239       2.00000          -4.200627         -114.30486
    240       2.00000          -4.200627         -114.30486
    241       2.00000          -4.200627         -114.30486
    242       2.00000          -4.200626         -114.30486
    243       2.00000          -4.200626         -114.30486
    244       2.00000          -4.200626         -114.30486
    245       2.00000          -4.200626         -114.30486
    246       2.00000          -4.200626         -114.30486
    247       2.00000          -4.200626         -114.30486
    248       2.00000          -4.200626         -114.30486
    249       2.00000          -4.200626         -114.30485
    250       2.00000          -4.200626         -114.30485
    251       2.00000          -4.200626         -114.30485
    252       2.00000          -4.200626         -114.30485
    253       2.00000          -4.200626         -114.30485
    254       2.00000          -4.200626         -114.30485
    255       2.00000          -4.200626         -114.30485
    256       2.00000          -4.200497         -114.30135
    257       2.00000          -3.892591         -105.92279
    258       2.00000          -3.892591         -105.92279
    259       2.00000          -3.892193         -105.91195
    260       2.00000          -3.892193         -105.91195
    261       2.00000          -3.892193         -105.91195
    262       2.00000          -3.892193         -105.91195
    263       2.00000          -3.891850         -105.90261
    264       2.00000          -3.891849         -105.90261
    265       2.00000          -2.461924          -66.99236
    266       2.00000          -2.461923          -66.99232
    267       2.00000          -2.461608          -66.98375
    268       2.00000          -2.461608          -66.98375
    269       2.00000          -2.461601          -66.98357
    270       2.00000          -2.461600          -66.98355
    271       2.00000          -2.461274          -66.97467
    272       2.00000          -2.461273          -66.97464
    273       2.00000          -2.461273          -66.97464
    274       2.00000          -2.461273          -66.97464
    275       2.00000          -2.461272          -66.97463
    276       2.00000          -2.461272          -66.97463
    277       2.00000          -2.461272          -66.97461
    278       2.00000          -2.461272          -66.97461
    279       2.00000          -2.461271          -66.97460
    280       2.00000          -2.461271          -66.97460
    281       2.00000          -2.461271          -66.97460
    282       2.00000          -2.461271          -66.97459
    283       2.00000          -2.460989          -66.96692
    284       2.00000          -2.460988          -66.96690
    285       2.00000          -2.460984          -66.96677
    286       2.00000          -2.460983          -66.96677
    287       2.00000          -2.460710          -66.95933
    288       2.00000          -2.460709          -66.95930
    289       2.00000          -1.530544          -41.64823
    290       2.00000          -1.530426          -41.64500
    291       2.00000          -1.530210          -41.63912
    292       2.00000          -1.530209          -41.63911
    293       2.00000          -1.530209          -41.63911
    294       2.00000          -1.530197          -41.63879
    295       2.00000          -1.530195          -41.63873
    296       2.00000          -1.530195          -41.63873
    297       2.00000          -1.530195          -41.63872
    298       2.00000          -1.530190          -41.63858
    299       2.00000          -1.530190          -41.63858
    300       2.00000          -1.530189          -41.63857
    301       2.00000          -1.530183          -41.63841
    302       2.00000          -1.530183          -41.63840
    303       2.00000          -1.530183          -41.63840
    304       2.00000          -1.530183          -41.63840
    305       2.00000          -1.530183          -41.63839
    306       2.00000          -1.530177          -41.63823
    307       2.00000          -1.530176          -41.63822
    308       2.00000          -1.530176          -41.63821
    309       2.00000          -1.530173          -41.63813
    310       2.00000          -1.530173          -41.63812
    311       2.00000          -1.530173          -41.63812
    312       2.00000          -1.529987          -41.63306
    313       2.00000          -1.529842          -41.62912
    314       2.00000          -1.529752          -41.62668
    315       2.00000          -1.529751          -41.62664
    316       2.00000          -1.529751          -41.62663
    317       2.00000          -1.529747          -41.62653
    318       2.00000          -1.529747          -41.62653
    319       2.00000          -1.529744          -41.62645
    320       2.00000          -1.529744          -41.62645
    321       2.00000          -1.529744          -41.62645
    322       2.00000          -1.529744          -41.62645
    323       2.00000          -1.529744          -41.62645
    324       2.00000          -1.529744          -41.62645
    325       2.00000          -1.529736          -41.62623
    326       2.00000          -1.529735          -41.62621
    327       2.00000          -1.529733          -41.62615
    328       2.00000          -1.529687          -41.62491
    329       2.00000          -0.605865          -16.48642
    330       2.00000          -0.590328          -16.06364
    331       2.00000          -0.590111          -16.05773
    332       2.00000          -0.590108          -16.05766
    333       2.00000          -0.590057          -16.05626
    334       2.00000          -0.585117          -15.92184
    335       2.00000          -0.585008          -15.91889
    336       2.00000          -0.585007          -15.91886
    337       2.00000          -0.452708          -12.31881
    338       2.00000          -0.452308          -12.30793
    339       2.00000          -0.452104          -12.30238
    340       2.00000          -0.450033          -12.24602
    341       2.00000          -0.449617          -12.23470
    342       2.00000          -0.449390          -12.22851
    343       2.00000          -0.449360          -12.22770
    344       2.00000          -0.449169          -12.22250
    345       2.00000          -0.449144          -12.22183
    346       2.00000          -0.448864          -12.21421
    347       2.00000          -0.448686          -12.20937
    348       2.00000          -0.445622          -12.12599
    349       2.00000          -0.445294          -12.11706
    350       2.00000          -0.445123          -12.11243
    351       2.00000          -0.445030          -12.10987
    352       2.00000          -0.444510          -12.09573
    353       2.00000          -0.444436          -12.09372
    354       2.00000          -0.444405          -12.09287
    355       2.00000          -0.444321          -12.09059
    356       2.00000          -0.443680          -12.07314
    357       2.00000          -0.439736          -11.96582
    358       2.00000          -0.439460          -11.95832
    359       2.00000          -0.439420          -11.95722
    360       2.00000          -0.439256          -11.95276
    361       2.00000          -0.439120          -11.94905
    362       2.00000          -0.439110          -11.94878
    363       2.00000          -0.438761          -11.93928
    364       2.00000          -0.438758          -11.93922
    365       2.00000          -0.438731          -11.93847
    366       2.00000          -0.438723          -11.93825
    367       2.00000          -0.438038          -11.91963
    368       2.00000          -0.437845          -11.91437
    369       2.00000          -0.437794          -11.91298
    370       2.00000          -0.430674          -11.71923
    371       2.00000          -0.430587          -11.71687
    372       2.00000          -0.430463          -11.71350
    373       2.00000          -0.430424          -11.71243
    374       2.00000          -0.427407          -11.63033
    375       2.00000          -0.427395          -11.63001
    376       2.00000          -0.427392          -11.62991
    377       2.00000          -0.346389           -9.42572
    378       2.00000          -0.345598           -9.40420
    379       2.00000          -0.345390           -9.39855
    380       2.00000          -0.344884           -9.38478
    381       2.00000          -0.338761           -9.21816
    382       2.00000          -0.337742           -9.19043
    383       2.00000          -0.336747           -9.16337
    384       2.00000          -0.257152           -6.99747
    385       2.00000          -0.257019           -6.99385
    386       2.00000          -0.257001           -6.99336
    387       2.00000          -0.256996           -6.99322
    388       2.00000          -0.256992           -6.99310
    389       2.00000          -0.256777           -6.98726
    390       2.00000          -0.218673           -5.95039
    391       2.00000          -0.218646           -5.94967
    392       2.00000          -0.217966           -5.93117
    393       2.00000          -0.217913           -5.92971
    394       2.00000          -0.217871           -5.92857
    395       2.00000          -0.217829           -5.92743
    396       2.00000          -0.217144           -5.90878
    397       2.00000          -0.217067           -5.90671
    398       2.00000          -0.190739           -5.19028
    399       2.00000          -0.190516           -5.18420
    400       2.00000          -0.190349           -5.17966
    401       0.00000          -0.150474           -4.09460
    402       0.00000          -0.111573           -3.03605
    403       0.00000          -0.110944           -3.01893
    404       0.00000          -0.110463           -3.00586
    405       0.00000          -0.109701           -2.98513
    406       0.00000          -0.080857           -2.20022
    407       0.00000          -0.080373           -2.18707
    408       0.00000          -0.079168           -2.15426
    409       0.00000          -0.079140           -2.15350
    410       0.00000          -0.078136           -2.12619
    411       0.00000          -0.077777           -2.11642
    412       0.00000          -0.003278           -0.08921
    413       0.00000          -0.003023           -0.08225
    414       0.00000          -0.002821           -0.07676
    415       0.00000           0.018331            0.49881
    416       0.00000           0.018432            0.50156
    417       0.00000           0.019515            0.53104
    418       0.00000           0.019663            0.53506
    419       0.00000           0.020057            0.54577
    420       0.00000           0.020285            0.55198
    421       0.00000           0.021447            0.58360
    422       0.00000           0.021602            0.58781
    423       0.00000           0.093170            2.53527
    424       0.00000           0.093176            2.53545
    425       0.00000           0.093713            2.55005
    426       0.00000           0.093773            2.55170
    427       0.00000           0.114979            3.12875
    428       0.00000           0.151363            4.11880
    429       0.00000           0.151458            4.12139
    430       0.00000           0.151852            4.13211
    431       0.00000           0.162516            4.42227
    432       0.00000           0.163140            4.43928
    433       0.00000           0.163693            4.45430
    434       0.00000           0.163756            4.45604
    435       0.00000           0.164406            4.47372
    436       0.00000           0.164768            4.48357
    437       0.00000           0.164811            4.48475
    438       0.00000           0.165176            4.49467
    439       0.00000           0.165789            4.51135
    440       0.00000           0.167135            4.54796
    441       0.00000           0.188020            5.11629
    442       0.00000           0.188390            5.12634
    443       0.00000           0.224949            6.12116
    444       0.00000           0.225801            6.14436
    445       0.00000           0.226081            6.15197
    446       0.00000           0.226768            6.17067
    447       0.00000           0.227055            6.17848
    448       0.00000           0.227883            6.20102
    449       0.00000           0.228143            6.20809
    450       0.00000           0.228714            6.22361
    451       0.00000           0.238961            6.50245
    452       0.00000           0.239099            6.50623
    453       0.00000           0.239128            6.50700
    454       0.00000           0.250934            6.82827
    455       0.00000           0.251907            6.85474
    456       0.00000           0.252314            6.86580
    457       0.00000           0.261977            7.12876
    458       0.00000           0.261988            7.12906
    459       0.00000           0.262856            7.15268
    460       0.00000           0.262868            7.15300
    461       0.00000           0.263067            7.15843
    462       0.00000           0.263564            7.17193
    463       0.00000           0.263800            7.17836
    464       0.00000           0.264091            7.18629
    465       0.00000           0.264536            7.19840
    466       0.00000           0.265907            7.23570
    467       0.00000           0.277938            7.56307
    468       0.00000           0.278340            7.57403
    469       0.00000           0.278726            7.58453
    470       0.00000           0.279372            7.60209
    471       0.00000           0.279460            7.60451
    472       0.00000           0.280496            7.63267
    473       0.00000           0.280703            7.63830
    474       0.00000           0.281421            7.65784
    475       0.00000           0.310789            8.45701
    476       0.00000           0.310822            8.45789
    477       0.00000           0.310943            8.46119
    478       0.00000           0.364648            9.92259
    479       0.00000           0.364667            9.92310
    480       0.00000           0.364857            9.92827
    481       0.00000           0.443111           12.05766
    482       0.00000           0.443183           12.05962
    483       0.00000           0.443254           12.06155
    484       0.00000           0.451090           12.27477
    485       0.00000           0.451130           12.27588
    486       0.00000           0.451390           12.28295
    487       0.00000           0.451855           12.29561
    488       0.00000           0.452556           12.31467

  What follows are estimated values for band gap, HOMO, LUMO, etc.
  | They are estimated on a discrete k-point grid and not necessarily exact.
  | For converged numbers, create a DOS and/or band structure plot on a denser k-grid.

  Highest occupied state (VBM) at     -5.17965679 eV (relative to internal zero)
  | Occupation number:      2.00000000
  | K-point:       1 at    0.000000    0.000000    0.000000 (in units of recip. lattice)

  Lowest unoccupied state (CBM) at    -4.09460451 eV (relative to internal zero)
  | Occupation number:      0.00000000
  | K-point:       1 at    0.000000    0.000000    0.000000 (in units of recip. lattice)

  ESTIMATED overall HOMO-LUMO gap:      1.08505228 eV between HOMO at k-point 1 and LUMO at k-point 1
  | This appears to be a direct band gap.
  The gap value is above 0.2 eV. Unless you are using a very sparse k-point grid,
  this system is most likely an insulator or a semiconductor.
  Calculating total energy contributions from superposition of free atom densities.

  Total energy components:
  | Sum of eigenvalues            :      -61499.36677490 Ha    -1673482.91581836 eV
  | XC energy correction          :       -2657.12527570 Ha      -72304.05754182 eV
  | XC potential correction       :        3466.87448411 Ha       94338.45460032 eV
  | Free-atom electrostatic energy:      -39777.62944893 Ha    -1082404.36943325 eV
  | Hartree energy correction     :           0.00000000 Ha           0.00000000 eV
  | Entropy correction            :           0.00000000 Ha           0.00000000 eV
  | ---------------------------
  | Total energy                  :     -100467.24701542 Ha    -2733852.88819310 eV
  | Total energy, T -> 0          :     -100467.24701542 Ha    -2733852.88819310 eV  <-- do not rely on this value for anything but (periodic) metals
  | Electronic free energy        :     -100467.24701542 Ha    -2733852.88819310 eV

  Derived energy quantities:
  | Kinetic energy                :      104978.37446351 Ha     2856606.91171159 eV
  | Electrostatic energy          :     -202788.49620323 Ha    -5518155.74236287 eV
  | Energy correction for multipole
  | error in Hartree potential    :           0.00000000 Ha           0.00000000 eV
  | Sum of eigenvalues per atom                           :     -104592.68223865 eV
  | Total energy (T->0) per atom                          :     -170865.80551207 eV  <-- do not rely on this value for anything but (periodic) metals
  | Electronic free energy per atom                       :     -170865.80551207 eV
  Initialize hartree_potential_storage
  Max. number of atoms included in rho_multipole:           16

  End scf initialization - timings             :  max(cpu_time)    wall_clock(cpu1)
  | Time for scf. initialization                :       15.398 s          15.399 s
  | Boundary condition initialization           :        0.166 s           0.166 s
  | Integration                                 :        1.603 s           1.602 s
  | Solution of K.-S. eqns.                     :       12.900 s          12.900 s
  | Grid partitioning                           :        0.328 s           0.328 s
  | Preloading free-atom quantities on grid     :        0.462 s           0.463 s
  | Free-atom superposition energy              :        0.088 s           0.088 s
  | Total energy evaluation                     :        0.003 s           0.003 s

  Partial memory accounting:
  | Current value for overall tracked memory usage:
  |   Minimum:      233.553 MB (on task 0)
  |   Maximum:      238.676 MB (on task 1)
  |   Average:      235.260 MB
  | Peak value for overall tracked memory usage:
  |   Minimum:      262.459 MB (on task 0 after allocating eval_tmp)
  |   Maximum:      267.582 MB (on task 1 after allocating eval_tmp)
  |   Average:      264.167 MB
  | Largest tracked array allocation so far:
  |   Minimum:      220.291 MB (KS_eigenvector_complex on task 0)
  |   Maximum:      225.414 MB (KS_eigenvector_complex on task 1)
  |   Average:      221.999 MB
  Note:  These values currently only include a subset of arrays which are explicitly tracked.
  The "true" memory usage will be greater.
------------------------------------------------------------
  Time for density update prior                :  max(cpu_time)    wall_clock(cpu1)
  | self-consistency iterative process          :        2.319 s           2.319 s
------------------------------------------------------------
Convergence:    q app. |  density  | eigen (eV) | Etot (eV) | forces (eV/A) |       CPU time |     Clock time
  SCF    1 : -0.66E-12 |  0.22E+00 |  -0.67E+01 |  0.25E+00 |             . |       14.097 s |       14.098 s
  SCF    2 : -0.95E-12 |  0.21E+00 |  -0.61E+02 |  0.14E+01 |             . |       14.243 s |       14.243 s
  SCF    3 : -0.27E-11 |  0.10E+00 |  -0.73E+01 |  0.12E+00 |             . |       14.266 s |       14.266 s
  SCF    4 : -0.36E-11 |  0.35E-01 |  -0.15E+01 |  0.57E-02 |             . |       14.276 s |       14.276 s
  SCF    5 : -0.31E-11 |  0.11E-01 |  -0.20E+02 |  0.12E-02 |             . |       14.280 s |       14.279 s
  SCF    6 : -0.16E-11 |  0.87E-02 |   0.47E+01 |  0.83E-03 |             . |       14.251 s |       14.251 s
  SCF    7 : -0.13E-11 |  0.60E-02 |   0.99E+01 |  0.12E-02 |             . |       14.241 s |       14.241 s
  SCF    8 : -0.36E-11 |  0.26E-02 |   0.33E+01 |  0.86E-03 |             . |       14.237 s |       14.237 s
  SCF    9 : -0.27E-11 |  0.21E-02 |  -0.61E+01 |  0.83E-04 |             . |       14.270 s |       14.270 s
  SCF   10 : -0.19E-12 |  0.52E-03 |  -0.50E+00 |  0.83E-04 |             . |       14.233 s |       14.234 s
  SCF   11 : -0.12E-11 |  0.20E-03 |  -0.30E+00 | -0.74E-05 |             . |       14.202 s |       14.202 s
  SCF   12 : -0.24E-11 |  0.54E-04 |   0.70E-01 | -0.34E-05 |             . |       14.170 s |       14.170 s
  SCF   13 : -0.25E-11 |  0.26E-04 |   0.18E-01 | -0.18E-05 |             . |       14.193 s |       14.192 s
  SCF   14 : -0.26E-11 |  0.64E-05 |  -0.16E-02 |  0.45E-06 |             . |       14.170 s |       14.171 s
  SCF   15 : -0.46E-11 |  0.35E-05 |   0.15E-02 | -0.24E-08 |             . |       14.193 s |       14.192 s
  SCF   16 : -0.37E-11 |  0.12E-05 |  -0.87E-03 |  0.19E-07 |             . |       14.168 s |       14.169 s
  SCF   17 : -0.19E-11 |  0.67E-06 |  -0.40E-03 |  0.87E-08 |             . |       14.192 s |       14.192 s
  SCF   18 : -0.27E-11 |  0.47E-06 |  -0.37E-04 |  0.75E-07 |             . |       14.158 s |       14.158 s
  SCF   19 : -0.21E-11 |  0.16E-06 |   0.80E-04 | -0.30E-07 |             . |       14.115 s |       14.115 s
  SCF   20 :  0.51E-14 |  0.64E-07 |   0.31E-04 | -0.67E-07 |             . |       14.252 s |       14.252 s
  SCF   21 : -0.13E-11 |  0.17E-07 |  -0.13E-04 |  0.88E-07 |      0.19E+00 |       34.748 s |       34.748 s
  SCF   22 : -0.13E-11 |  0.12E-07 |   0.67E-05 | -0.57E-07 |      0.12E-06 |       33.696 s |       33.696 s

  Total energy components:
  | Sum of eigenvalues            :      -61502.52372347 Ha    -1673568.82075966 eV
[...]
     | k-string  230 :        29.749410E-03 /        29.749410E-03 P0
     | k-string  231 :        33.659541E-03 /        33.659541E-03 P0
     | k-string  232 :        32.265583E-03 /        32.265583E-03 P0
     | k-string  233 :        26.338224E-03 /        26.338224E-03 P0
     | k-string  234 :        18.486053E-03 /        18.486053E-03 P0
     | k-string  235 :        10.860585E-03 /        10.860585E-03 P0
     | k-string  236 :         4.527114E-03 /         4.527114E-03 P0
     | k-string  237 :       999.773845E-03 /      -226.155306E-06 P0
     | k-string  238 :       996.497612E-03 /        -3.502388E-03 P0
     | k-string  239 :       994.456831E-03 /        -5.543169E-03 P0
     | k-string  240 :       993.415251E-03 /        -6.584749E-03 P0
     | k-string  241 :       992.434110E-03 /        -7.565890E-03 P0
     | k-string  242 :       991.842231E-03 /        -8.157769E-03 P0
     | k-string  243 :       992.051050E-03 /        -7.948950E-03 P0
     | k-string  244 :       993.086502E-03 /        -6.913498E-03 P0
     | k-string  245 :       995.068784E-03 /        -4.931216E-03 P0
     | k-string  246 :       998.171889E-03 /        -1.828111E-03 P0
     | k-string  247 :         2.541546E-03 /         2.541546E-03 P0
     | k-string  248 :         8.155882E-03 /         8.155882E-03 P0
     | k-string  249 :        14.615254E-03 /        14.615254E-03 P0
     | k-string  250 :        20.902671E-03 /        20.902671E-03 P0
     | k-string  251 :        25.358587E-03 /        25.358587E-03 P0
     | k-string  252 :        26.338031E-03 /        26.338031E-03 P0
     | k-string  253 :        23.418499E-03 /        23.418499E-03 P0
     | k-string  254 :        17.783039E-03 /        17.783039E-03 P0
     | k-string  255 :        11.225259E-03 /        11.225259E-03 P0
     | k-string  256 :         5.108712E-03 /         5.108712E-03 P0
     | k-string  257 :       109.544152E-06 /       109.544152E-06 P0
     | k-string  258 :       996.403053E-03 /        -3.596947E-03 P0
     | k-string  259 :       993.902752E-03 /        -6.097248E-03 P0
     | k-string  260 :       992.434110E-03 /        -7.565890E-03 P0
     | k-string  261 :       991.525153E-03 /        -8.474847E-03 P0
     | k-string  262 :       990.534147E-03 /        -9.465853E-03 P0
     | k-string  263 :       990.351865E-03 /        -9.648135E-03 P0
     | k-string  264 :       990.960969E-03 /        -9.039031E-03 P0
     | k-string  265 :       992.411428E-03 /        -7.588572E-03 P0
     | k-string  266 :       994.795623E-03 /        -5.204377E-03 P0
     | k-string  267 :       998.187402E-03 /        -1.812598E-03 P0
     | k-string  268 :         2.541252E-03 /         2.541252E-03 P0
     | k-string  269 :         7.558860E-03 /         7.558860E-03 P0
     | k-string  270 :        12.570425E-03 /        12.570425E-03 P0
     | k-string  271 :        16.559854E-03 /        16.559854E-03 P0
     | k-string  272 :        18.485604E-03 /        18.485604E-03 P0
     | k-string  273 :        17.782809E-03 /        17.782809E-03 P0
     | k-string  274 :        14.659123E-03 /        14.659123E-03 P0
     | k-string  275 :         9.987767E-03 /         9.987767E-03 P0
     | k-string  276 :         4.858254E-03 /         4.858254E-03 P0
     | k-string  277 :       126.298033E-06 /       126.298033E-06 P0
     | k-string  278 :       996.257905E-03 /        -3.742095E-03 P0
     | k-string  279 :       993.401612E-03 /        -6.598388E-03 P0
     | k-string  280 :       991.525153E-03 /        -8.474847E-03 P0
     | k-string  281 :       991.041995E-03 /        -8.958005E-03 P0
     | k-string  282 :       989.661414E-03 /       -10.338586E-03 P0
     | k-string  283 :       989.088204E-03 /       -10.911796E-03 P0
     | k-string  284 :       989.303567E-03 /       -10.696433E-03 P0
     | k-string  285 :       990.314438E-03 /        -9.685562E-03 P0
     | k-string  286 :       992.144969E-03 /        -7.855031E-03 P0
     | k-string  287 :       994.795334E-03 /        -5.204666E-03 P0
     | k-string  288 :       998.171304E-03 /        -1.828696E-03 P0
     | k-string  289 :         2.003225E-03 /         2.003225E-03 P0
     | k-string  290 :         5.804577E-03 /         5.804577E-03 P0
     | k-string  291 :         8.945938E-03 /         8.945938E-03 P0
     | k-string  292 :        10.859848E-03 /        10.859848E-03 P0
     | k-string  293 :        11.224775E-03 /        11.224775E-03 P0
     | k-string  294 :         9.987537E-03 /         9.987537E-03 P0
     | k-string  295 :         7.346890E-03 /         7.346890E-03 P0
     | k-string  296 :         3.769615E-03 /         3.769615E-03 P0
     | k-string  297 :       999.882132E-03 /      -117.867991E-06 P0
     | k-string  298 :       996.252582E-03 /        -3.747418E-03 P0
     | k-string  299 :       993.250328E-03 /        -6.749672E-03 P0
     | k-string  300 :       991.041995E-03 /        -8.958005E-03 P0
     | k-string  301 :       991.155136E-03 /        -8.844864E-03 P0
     | k-string  302 :       989.446593E-03 /       -10.553407E-03 P0
     | k-string  303 :       988.488259E-03 /       -11.511741E-03 P0
     | k-string  304 :       988.313792E-03 /       -11.686208E-03 P0
     | k-string  305 :       988.928082E-03 /       -11.071918E-03 P0
     | k-string  306 :       990.314188E-03 /        -9.685812E-03 P0
     | k-string  307 :       992.410888E-03 /        -7.589112E-03 P0
     | k-string  308 :       995.067945E-03 /        -4.932055E-03 P0
     | k-string  309 :       998.003452E-03 /        -1.996548E-03 P0
     | k-string  310 :       812.665188E-06 /       812.665188E-06 P0
     | k-string  311 :         3.076158E-03 /         3.076158E-03 P0
     | k-string  312 :         4.526103E-03 /         4.526103E-03 P0
     | k-string  313 :         5.107976E-03 /         5.107976E-03 P0
     | k-string  314 :         4.857800E-03 /         4.857800E-03 P0
     | k-string  315 :         3.769409E-03 /         3.769409E-03 P0
     | k-string  316 :         1.843603E-03 /         1.843603E-03 P0
     | k-string  317 :       999.243177E-03 /      -756.822729E-06 P0
     | k-string  318 :       996.326968E-03 /        -3.673032E-03 P0
     | k-string  319 :       993.517402E-03 /        -6.482598E-03 P0
     | k-string  320 :       991.155136E-03 /        -8.844864E-03 P0
     | k-string  321 :       991.809795E-03 /        -8.190205E-03 P0
     | k-string  322 :       989.936146E-03 /       -10.063854E-03 P0
     | k-string  323 :       988.648432E-03 /       -11.351568E-03 P0
     | k-string  324 :       988.089288E-03 /       -11.910712E-03 P0
     | k-string  325 :       988.313596E-03 /       -11.686404E-03 P0
     | k-string  326 :       989.303122E-03 /       -10.696878E-03 P0
     | k-string  327 :       990.960231E-03 /        -9.039769E-03 P0
     | k-string  328 :       993.085462E-03 /        -6.914538E-03 P0
     | k-string  329 :       995.365209E-03 /        -4.634791E-03 P0
     | k-string  330 :       997.416522E-03 /        -2.583478E-03 P0
     | k-string  331 :       998.919723E-03 /        -1.080277E-03 P0
     | k-string  332 :       999.772606E-03 /      -227.394389E-06 P0
     | k-string  333 :       108.587562E-06 /       108.587562E-06 P0
     | k-string  334 :       125.643494E-06 /       125.643494E-06 P0
     | k-string  335 :       999.881746E-03 /      -118.253784E-06 P0
     | k-string  336 :       999.243009E-03 /      -756.991034E-06 P0
     | k-string  337 :       998.026700E-03 /        -1.973300E-03 P0
     | k-string  338 :       996.211329E-03 /        -3.788671E-03 P0
     | k-string  339 :       994.018158E-03 /        -5.981842E-03 P0
     | k-string  340 :       991.809795E-03 /        -8.190205E-03 P0
     | k-string  341 :       992.740948E-03 /        -7.259052E-03 P0
     | k-string  342 :       990.997263E-03 /        -9.002737E-03 P0
     | k-string  343 :       989.537765E-03 /       -10.462235E-03 P0
     | k-string  344 :       988.648296E-03 /       -11.351704E-03 P0
     | k-string  345 :       988.487928E-03 /       -11.512072E-03 P0
     | k-string  346 :       989.087622E-03 /       -10.912378E-03 P0
     | k-string  347 :       990.350988E-03 /        -9.649012E-03 P0
     | k-string  348 :       992.049868E-03 /        -7.950132E-03 P0
     | k-string  349 :       993.837248E-03 /        -6.162752E-03 P0
     | k-string  350 :       995.320749E-03 /        -4.679251E-03 P0
     | k-string  351 :       996.215397E-03 /        -3.784603E-03 P0
     | k-string  352 :       996.496204E-03 /        -3.503796E-03 P0
     | k-string  353 :       996.401928E-03 /        -3.598072E-03 P0
     | k-string  354 :       996.257091E-03 /        -3.742909E-03 P0
     | k-string  355 :       996.252052E-03 /        -3.747948E-03 P0
     | k-string  356 :       996.326669E-03 /        -3.673331E-03 P0
     | k-string  357 :       996.211205E-03 /        -3.788795E-03 P0
     | k-string  358 :       995.605318E-03 /        -4.394682E-03 P0
     | k-string  359 :       994.394052E-03 /        -5.605948E-03 P0
     | k-string  360 :       992.740948E-03 /        -7.259052E-03 P0
     | k-string  361 :       993.552203E-03 /        -6.447797E-03 P0
     | k-string  362 :       992.334668E-03 /        -7.665332E-03 P0
     | k-string  363 :       990.997185E-03 /        -9.002815E-03 P0
     | k-string  364 :       989.935933E-03 /       -10.064067E-03 P0
     | k-string  365 :       989.446186E-03 /       -10.553814E-03 P0
     | k-string  366 :       989.660756E-03 /       -10.339244E-03 P0
     | k-string  367 :       990.533194E-03 /        -9.466806E-03 P0
     | k-string  368 :       991.840968E-03 /        -8.159032E-03 P0
     | k-string  369 :       993.218456E-03 /        -6.781544E-03 P0
     | k-string  370 :       994.255173E-03 /        -5.744827E-03 P0
     | k-string  371 :       994.667553E-03 /        -5.332447E-03 P0
     | k-string  372 :       994.455319E-03 /        -5.544681E-03 P0
     | k-string  373 :       993.901517E-03 /        -6.098483E-03 P0
     | k-string  374 :       993.400691E-03 /        -6.599309E-03 P0
     | k-string  375 :       993.249699E-03 /        -6.750301E-03 P0
     | k-string  376 :       993.517016E-03 /        -6.482984E-03 P0
     | k-string  377 :       994.017955E-03 /        -5.982045E-03 P0
     | k-string  378 :       994.393976E-03 /        -5.606024E-03 P0
     | k-string  379 :       994.288648E-03 /        -5.711352E-03 P0
     | k-string  380 :       993.552203E-03 /        -6.447797E-03 P0
     | k-string  381 :       993.873757E-03 /        -6.126243E-03 P0
     | k-string  382 :       993.552178E-03 /        -6.447822E-03 P0
     | k-string  383 :       992.740845E-03 /        -7.259155E-03 P0
     | k-string  384 :       991.809561E-03 /        -8.190439E-03 P0
     | k-string  385 :       991.154711E-03 /        -8.845289E-03 P0
     | k-string  386 :       991.041323E-03 /        -8.958677E-03 P0
     | k-string  387 :       991.524185E-03 /        -8.475815E-03 P0
     | k-string  388 :       992.432830E-03 /        -7.567170E-03 P0
     | k-string  389 :       993.413698E-03 /        -6.586302E-03 P0
     | k-string  390 :       994.049344E-03 /        -5.950656E-03 P0
     | k-string  391 :       994.049344E-03 /        -5.950656E-03 P0
     | k-string  392 :       993.413698E-03 /        -6.586302E-03 P0
     | k-string  393 :       992.432830E-03 /        -7.567170E-03 P0
     | k-string  394 :       991.524185E-03 /        -8.475815E-03 P0
     | k-string  395 :       991.041323E-03 /        -8.958677E-03 P0
     | k-string  396 :       991.154711E-03 /        -8.845289E-03 P0
     | k-string  397 :       991.809561E-03 /        -8.190439E-03 P0
     | k-string  398 :       992.740845E-03 /        -7.259155E-03 P0
     | k-string  399 :       993.552178E-03 /        -6.447822E-03 P0
     | k-string  400 :       993.873757E-03 /        -6.126243E-03 P0
   - Dipole term: Electronic polarization along rec. latt. vec.    1 is:       -7.897582E-06 C/m^2 after branch-mapping



  Wannier center evolution                                :  max(cpu_time) wall_clock(cpu1)
  | Total Time                                            :       1974.242         1974.344
------------------------------------------------------------

  Summary for all Polarization Directives:

  * Ionic Polarization along rec. latt. vecs. is (C/m^2):       -80.905450E-03       80.863489E-03       80.905283E-03
  * Electronic Contributions:
    Summarizing all directives:
    - Directive    1 in direction of rec. latt. vec.  1 yields the electronic polarization (Berry term):          83.892381E-03 (C/m^2)
    - Directive    1 in direction of rec. latt. vec.  1 yields the electronic polarization (Dipole term):         -7.897582E-06 (C/m^2)
  * Full Polarizations (Electron + Ions):
    Summarizing all directives:
    - Directive    1 in direction of rec. latt. vec.  1 yields the full polarization      :         2.979033E-03 (C/m^2)

------------------------------------------------------------


------------------------------------------------------------------------------
  Final output of selected total energy values:

  The following output summarizes some interesting total energy values
  at the end of a run (AFTER all relaxation, molecular dynamics, etc.).

  | Total energy of the DFT / Hartree-Fock s.c.f. calculation      :       -2733851.096807687 eV
  | Final zero-broadening corrected energy (caution - metals only) :       -2733851.096807687 eV
  | For reference only, the value of 1 Hartree used in FHI-aims is :             27.211384500 eV
  | For reference only, the overall average (free atom contribution
  | + realspace contribution) of the electrostatic potential after
  | s.c.f. convergence is                                          :            -13.760932336 eV

  Before relying on these values, please be sure to understand exactly which
  total energy value is referred to by a given number. Different objects may
  all carry the same name 'total energy'. Definitions:

  Total energy of the DFT / Hartree-Fock s.c.f. calculation:
  | Note that this energy does not include ANY quantities calculated after the
  | s.c.f. cycle, in particular not ANY RPA, MP2, etc. many-body perturbation terms.

  Final zero-broadening corrected energy:
  | For metallic systems only, a broadening of the occupation numbers at the Fermi
  | level can be extrapolated back to zero broadening by an electron-gas inspired
  | formula. For all systems that are not real metals, this value can be
  | meaningless and should be avoided.

------------------------------------------------------------------------------
  Methods described in the following list of references were used in this FHI-aims run.
  If you publish the results, please make sure to cite these reference if they apply.
  FHI-aims is an academic code, and for our developers (often, Ph.D. students
  and postdocs), scientific credit in the community is essential.
  Thank you for helping us!

  For any use of FHI-aims, please cite:

    Volker Blum, Ralf Gehrke, Felix Hanke, Paula Havu, Ville Havu,
    Xinguo Ren, Karsten Reuter, and Matthias Scheffler
    'Ab initio molecular simulations with numeric atom-centered orbitals'
    Computer Physics Communications 180, 2175-2196 (2009)
    http://doi.org/10.1016/j.cpc.2009.06.022


  The provided symmetry information was generated with SPGlib:

    Atsushi Togo, Yusuke Seto, Dimitar Pashov
    SPGlib 1.7.3 obtained from http://spglib.sourceforge.net
    Copyright (C) 2008 Atsushi Togo


  The ELSI infrastructure was used in your run to solve the Kohn-Sham electronic structure.
  Please check out http://elsi-interchange.org to learn more.
  If scalability is important for your project, please acknowledge ELSI by citing:

    V. W-z. Yu, F. Corsetti, A. Garcia, W. P. Huhn, M. Jacquelin, W. Jia,
    B. Lange, L. Lin, J. Lu, W. Mi, A. Seifitokaldani, A. Vazquez-Mayagoitia,
    C. Yang, H. Yang, and V. Blum
    'ELSI: A unified software interface for Kohn-Sham electronic structure solvers'
    Computer Physics Communications 222, 267-285 (2018).
    http://doi.org/10.1016/j.cpc.2017.09.007


  For the real-space grid partitioning and parallelization used in this calculation, please cite:

    Ville Havu, Volker Blum, Paula Havu, and Matthias Scheffler,
    'Efficient O(N) integration for all-electron electronic structure calculation'
    'using numerically tabulated basis functions'
    Journal of Computational Physics 228, 8367-8379 (2009).
    http://doi.org/10.1016/j.jcp.2009.08.008

  Of course, there are many other important community references, e.g., those cited in the
  above references. Our list is limited to references that describe implementations in the
  FHI-aims code. The reason is purely practical (length of this list) - please credit others as well.

 * A warning was issued further up regarding the accuracy of onsite integrals.
   An integral with a negative eigenvalue was among the flagged integrals.
   In most standard situations, this warning is probably harmless.
   If needed, this can be verified by adjusting the radial_multiplier flag.

------------------------------------------------------------
          Leaving FHI-aims.
          Date     :  20230816, Time     :  141853.617

          Computational steps:
          | Number of self-consistency cycles          :           22
          | Number of SCF (re)initializations          :            1

          Detailed time accounting                     :  max(cpu_time)    wall_clock(cpu1)
          | Total time                                  :     2345.270 s        2345.309 s
          | Preparation time                            :        0.311 s           0.311 s
          | Boundary condition initalization            :        0.166 s           0.166 s
          | Grid partitioning                           :        0.328 s           0.328 s
          | Preloading free-atom quantities on grid     :        0.462 s           0.463 s
          | Free-atom superposition energy              :        0.088 s           0.088 s
          | Total time for integrations                 :       22.173 s          22.173 s
          | Total time for solution of K.-S. equations  :      207.752 s         207.751 s
          | Total time for density & force components   :       83.111 s          83.108 s
          | Total time for mixing & preconditioning     :       14.420 s          14.425 s
          | Total time for Hartree multipole update     :        0.061 s           0.059 s
          | Total time for Hartree multipole sum        :       36.230 s          36.230 s
          | Total time for total energy evaluation      :        0.056 s           0.058 s
          | Total time NSC force correction             :        5.645 s           5.646 s
          | Total time for scaled ZORA corrections      :        0.000 s           0.000 s
          | Total time for Wannier Center Evolution     :     1974.315 s        1974.344 s

          Partial memory accounting:
          | Residual value for overall tracked memory usage across tasks:     0.000000 MB (should be 0.000000 MB)
          | Peak values for overall tracked memory usage:
          |   Minimum:      306.284 MB (on task 0 after allocating WCC_evalue_phase_r)
          |   Maximum:      316.530 MB (on task 1 after allocating WCC_evalue_phase_r)
          |   Average:      309.700 MB
          | Largest tracked array allocation:
          |   Minimum:      220.291 MB (KS_eigenvector_complex on task 0)
          |   Maximum:      225.414 MB (KS_eigenvector_complex on task 1)
          |   Average:      221.999 MB
          Note:  These values currently only include a subset of arrays which are explicitly tracked.
          The "true" memory usage will be greater.

          Have a nice day.
------------------------------------------------------------
