------------------------------------------------------------
          Invoking FHI-aims ...

          When using FHI-aims, please cite the following reference:

            Volker Blum, Ralf Gehrke, Felix Hanke, Paula Havu,
            Ville Havu, Xinguo Ren, Karsten Reuter, and Matthias Scheffler,
            'Ab Initio Molecular Simulations with Numeric Atom-Centered Orbitals',
            Computer Physics Communications 180, 2175-2196 (2009)

          In addition, many other developments in FHI-aims are likely important for
          your particular application. A partial list of references is given at the end of
          this file. Thank you for giving credit to the authors of these developments.

          For any questions about FHI-aims, please visit our slack channel at

            https://fhi-aims.slack.com

          and our main development and support site at

            https://aims-git.rz-berlin.mpg.de .

          The latter site, in particular, has a wiki to collect information, as well
          as an issue tracker to log discussions, suggest improvements, and report issues
          or bugs. https://aims-git.rz-berlin.mpg.de is also the main development site
          of the project and all new and updated code versions can be obtained there.
          Please send an email to aims-coordinators@fhi-berlin.mpg.de and we will add
          you to these sites. They are for you and everyone is welcome there.

------------------------------------------------------------



  Date     :  20230816, Time     :  210044.723
  Time zero on CPU 1             :   0.243109000000000E+00  s.
  Internal wall clock time zero  :           461451644.723  s.

  FHI-aims created a unique identifier for this run for later identification
  aims_uuid : 82BCC5CC-8C72-49AB-AF72-525BDABB9878

  Build configuration of the current instance of FHI-aims
  -------------------------------------------------------
  FHI-aims version      : 220619
  Commit number         : ad4f367e7
  CMake host system     : Linux-5.4.0-122-generic
  CMake version         : 3.16.3
  Fortran compiler      : /opt/intel/oneapi/mpi/2021.5.1/bin/mpiifort (Intel) version 20.2.5.20211109
  Fortran compiler flags: -O3 -ip -fp-model precise
  C compiler            : /opt/intel/oneapi/compiler/2022.0.2/linux/bin/intel64/icc (Intel) version 20.2.5.20211109
  C compiler flags      : -O3 -ip -fp-model precise -std=gnu99
  ELPA2 kernel          : AVX2
  Using MPI
  Using ScaLAPACK
  Using LibXC
  Using i-PI
  Using RLSY
  Linking against: /opt/intel/oneapi/mkl/2022.1.0/lib/intel64/libmkl_intel_lp64.so
                   /opt/intel/oneapi/mkl/2022.1.0/lib/intel64/libmkl_sequential.so
                   /opt/intel/oneapi/mkl/2022.1.0/lib/intel64/libmkl_core.so
                   /opt/intel/oneapi/mkl/2022.1.0/lib/intel64/libmkl_blacs_intelmpi_lp64.so
                   /opt/intel/oneapi/mkl/2022.1.0/lib/intel64/libmkl_scalapack_lp64.so

  Using        6 parallel tasks.
  Task        0 on host c21000127-lnx reporting.
  Task        1 on host c21000127-lnx reporting.
  Task        2 on host c21000127-lnx reporting.
  Task        3 on host c21000127-lnx reporting.
  Task        4 on host c21000127-lnx reporting.
  Task        5 on host c21000127-lnx reporting.

  Performing system and environment tests:
  *** Environment variable OMP_NUM_THREADS is not set
  *** For performance reasons you might want to set it to 1
  | Checking for ScaLAPACK...
  | Testing pdtran()...
  | All pdtran() tests passed.

  Obtaining array dimensions for all initial allocations:
  
  -----------------------------------------------------------------------
  Parsing control.in (first pass over file, find array dimensions only).
  The contents of control.in will be repeated verbatim below
  unless switched off by setting 'verbatim_writeout .false.' .
  in the first line of control.in .
  -----------------------------------------------------------------------
  
  # for production level calculation use tight basis set
  xc                                 pbe
  k_grid                             16 16 16
  sc_accuracy_rho                    1e-07
  relativistic                       atomic_zora scalar
  output_level                       MD_light
  DFPT dielectric
  ################################################################################
  #
  #  FHI-aims code project
  #  VB, Fritz-Haber Institut, 2009
  #
  #  Suggested "light" defaults for Cd atom (to be pasted into control.in file)
  #  Be sure to double-check any results obtained with these settings for post-processing,
  #  e.g., with the "tight" defaults and larger basis sets.
  #
  ################################################################################
    species        Cd
  #     global species definitions
      nucleus             48
      mass                112.411
  #
      l_hartree           4
  #
      cut_pot             3.5  1.5  1.0
      basis_dep_cutoff    1e-4
  #
      radial_base         62 5.0
      radial_multiplier   1
      angular_grids specified
        division   0.5937   50
        division   1.0282  110
        division   1.3769  194
        division   1.7301  302
  #      division   2.2341  434
  #      division   2.2741  590
  #      division   2.3152  770
  #      division   2.3574  974
  #      division   2.9077 1202
  #      outer_grid  974
        outer_grid  302
  ################################################################################
  #
  #  Definition of "minimal" basis
  #
  ################################################################################
  #     valence basis states
      valence      5  s   2.
      valence      4  p   6.
      valence      4  d  10.
  #     ion occupancy
      ion_occ     5  s   1.
      ion_occ     4  p   6.
      ion_occ     4  d   9.
  ################################################################################
  #
  #  Suggested additional basis functions. For production calculations,
  #  uncomment them one after another (the most important basis functions are
  #  listed first).
  #
  #  Constructed for dimers: 2.15 A, 2.50 A, 3.10 A, 4.00 A, 5.00 A
  #
  ################################################################################
  #  "First tier" - max. impr. -224.92  meV, min. impr. -5.81 meV
       hydro 2 p 1.6
       hydro 4 f 7
       hydro 3 s 2.8
       hydro 3 p 5.2
  #     hydro 5 g 10.0
       hydro 3 d 3.8
  #  "Second tier" - max. impr. -2.57  meV, min. impr. -0.38 meV
  #     hydro 4 f 17.6
  #     hydro 6 h 13.6
  #     hydro 3 p 7
  #     hydro 5 s 17.6
  #     hydro 3 d 3.4
  #  "Third tier" - max. impr. -0.37 meV, min. impr. -0.09 meV
  #     hydro 3 p 2.4
  #     hydro 4 f 6.4
  #     hydro 4 s 4
  #     hydro 5 f 15.6
  #     hydro 5 g 10.8
  #     hydro 2 p 6.4
  #     hydro 6 h 12.8
  #     hydro 5 d 9.0
  #  Further functions: -0.05 meV and below
  #     hydro 5 d 5.8
  ################################################################################
  #
  #  FHI-aims code project
  #  VB, Fritz-Haber Institut, 2009
  #
  #  Suggested "light" defaults for Te atom (to be pasted into control.in file)
  #  Be sure to double-check any results obtained with these settings for post-processing,
  #  e.g., with the "tight" defaults and larger basis sets.
  #
  #  2020/09/22 Added f function to light settings to improve bulk properties of In-I.
  #
  ################################################################################
    species        Te
  #     global species definitions
      nucleus             52
      mass                127.60
  #
      l_hartree           4
  #
      cut_pot             3.5  1.5  1.0
      basis_dep_cutoff    1e-4
  #
      radial_base         64 5.0
      radial_multiplier   1
      angular_grids specified
        division   0.1259  110
        division   0.8959  194
        division   0.9864  302
  #      division   1.1196  434
  #      division   1.1922  590
  #      division   1.3098  770
  #      division   2.9404  974
  #      outer_grid  974
        outer_grid  302
  ################################################################################
  #
  #  Definition of "minimal" basis
  #
  ################################################################################
  #     valence basis states
      valence      5  s   2.
      valence      5  p   4.
      valence      4  d  10.
  #     ion occupancy
      ion_occ     5  s   1.
      ion_occ     5  p   3.
      ion_occ     4  d  10.
  ################################################################################
  #
  #  Suggested additional basis functions. For production calculations,
  #  uncomment them one after another (the most important basis functions are
  #  listed first).
  #
  #  Constructed for dimers: 2.15 A, 2.55 A, 3.10 A, 3.60 A, 4.50 A
  #
  ################################################################################
  #  "First tier" - max. impr. -217.34  meV, min. impr. -22.97 meV
       hydro 3 d 3.7
       hydro 4 f 6
       hydro 3 p 2.7
       ionic 5 s auto
  #  "Second tier" - max. impr. -17.80 meV, min. impr. -0.57 meV
  #     hydro 5 g 9
  #     hydro 4 f 16.4
  #     hydro 6 h 12
  #     hydro 4 p 6.4
  #     hydro 5 f 32.4
  #     hydro 4 d 5
  #     hydro 3 s 2.8
  #  "Third tier" - max. impr. -0.51 meV, min. impr. -0.06 meV
  #     hydro 5 f 8.4
  #     hydro 5 g 11.6
  #     hydro 6 h 15.6
  #     hydro 2 p 1.7
  #     hydro 4 d 9.6
  #     hydro 1 s 6.4
  #  Further functions that fell out of the optimization: -0.17 meV and below
  #     hydro 4 f 33.6
  #     hydro 5 d 6.8
  #     hydro 5 f 16
  
  -----------------------------------------------------------------------
  Completed first pass over input file control.in .
  -----------------------------------------------------------------------
  
  
  -----------------------------------------------------------------------
  Parsing geometry.in (first pass over file, find array dimensions only).
  The contents of geometry.in will be repeated verbatim below
  unless switched off by setting 'verbatim_writeout .false.' .
  in the first line of geometry.in .
  -----------------------------------------------------------------------
  
  #
  # This is the geometry file that corresponds to the current relaxation step.
  # If you do not want this file to be written, set the "write_restart_geometry" flag to .false.
  #  aims_uuid : E757DA0F-1F91-45F2-AC3F-E5C82B74B805
  #
  lattice_vector     -0.00000170      3.24229352      3.24229440
  lattice_vector      3.24229724      0.00000227      3.24229662
  lattice_vector      3.24230079      3.24229928      0.00000317
  atom_frac       0.00000557      0.00000632     -0.00000555 Cd
  atom_frac       0.74999443      0.74999368      0.75000555 Te
  #
  # What follows is the current estimated Hessian matrix constructed by the BFGS algorithm.
  # This is NOT the true Hessian matrix of the system.
  # If you do not want this information here, switch it off using the "hessian_to_restart_geometry" keyword.
  #
  trust_radius             0.2000000030
  hessian_file
  
  -----------------------------------------------------------------------
  Completed first pass over input file geometry.in .
  -----------------------------------------------------------------------
  

  Basic array size parameters:
  | Number of species                 :        2
  | Number of atoms                   :        2
  | Number of lattice vectors         :        3
  | Max. basis fn. angular momentum   :        3
  | Max. atomic/ionic basis occupied n:        5
  | Max. number of basis fn. types    :        3
  | Max. radial fns per species/type  :       11
  | Max. logarithmic grid size        :     1454
  | Max. radial integration grid size :       64
  | Max. angular integration grid size:      302
  | Max. angular grid division number :        8
  | Radial grid for Hartree potential :     1454
  | Number of spin channels           :        1

------------------------------------------------------------
          Reading file control.in.
------------------------------------------------------------
  XC: Using PBE gradient-corrected functionals.
  Found k-point grid:        16        16        16
  Convergence accuracy of self-consistent charge density:  0.1000E-06
  Scalar relativistic treatment of kinetic energy: on-site free-atom approximation to ZORA.
  Requested output level: MD_light
  DFPT calculation will begin after the DFT/HF calculation.
 
  Reading configuration options for species Cd                  .
  | Found nuclear charge :  48.0000
  | Found atomic mass :    112.411000000000      amu
  | Found l_max for Hartree potential  :   4
  | Found cutoff potl. onset [A], width [A], scale factor :    3.50000    1.50000    1.00000
  | Threshold for basis-dependent cutoff potential is   0.100000E-03
  | Found data for basic radial integration grid :    62 points, outermost radius =    5.000 A
  | Found multiplier for basic radial grid :   1
  | Found angular grid specification: user-specified.
  | Specified grid contains     5 separate shells.
  | Check grid settings after all constraints further below.
  | Found free-atom valence shell :  5 s   2.000
  | Found free-atom valence shell :  4 p   6.000
  | Found free-atom valence shell :  4 d  10.000
  | Found free-ion valence shell :  5 s   1.000
  | Found free-ion valence shell :  4 p   6.000
  | Found free-ion valence shell :  4 d   9.000
  | Found hydrogenic basis function :  2 p   1.600
  | Found hydrogenic basis function :  4 f   7.000
  | Found hydrogenic basis function :  3 s   2.800
  | Found hydrogenic basis function :  3 p   5.200
  | Found hydrogenic basis function :  3 d   3.800
  Species Cd                  : Missing cutoff potential type.
  Defaulting to exp(1/x)/(1-x)^2 type cutoff potential.
  Species Cd: No 'logarithmic' tag. Using default grid for free atom:
  | Default logarithmic grid data [bohr] : 0.1000E-03 0.1000E+03 0.1012E+01
  Species Cd: On-site basis accuracy parameter (for Gram-Schmidt orthonormalisation) not specified.
  Using default value basis_acc =  0.1000000E-03.
  Species Cd                  : Using default innermost maximum threshold i_radial=  2 for radial functions.
  Species Cd                  : Default cutoff onset for free atom density etc. : 0.35000000E+01 AA.
  Species Cd                  : Basic radial grid will be enhanced according to radial_multiplier =   1, to contain    62 grid points.
 
  Reading configuration options for species Te                  .
  | Found nuclear charge :  52.0000
  | Found atomic mass :    127.600000000000      amu
  | Found l_max for Hartree potential  :   4
  | Found cutoff potl. onset [A], width [A], scale factor :    3.50000    1.50000    1.00000
  | Threshold for basis-dependent cutoff potential is   0.100000E-03
  | Found data for basic radial integration grid :    64 points, outermost radius =    5.000 A
  | Found multiplier for basic radial grid :   1
  | Found angular grid specification: user-specified.
  | Specified grid contains     4 separate shells.
  | Check grid settings after all constraints further below.
  | Found free-atom valence shell :  5 s   2.000
  | Found free-atom valence shell :  5 p   4.000
  | Found free-atom valence shell :  4 d  10.000
  | Found free-ion valence shell :  5 s   1.000
  | Found free-ion valence shell :  5 p   3.000
  | Found free-ion valence shell :  4 d  10.000
  | Found hydrogenic basis function :  3 d   3.700
  | Found hydrogenic basis function :  4 f   6.000
  | Found hydrogenic basis function :  3 p   2.700
  | Found ionic basis function :  5 s , default cutoff radius.
  Species Te                  : Missing cutoff potential type.
  Defaulting to exp(1/x)/(1-x)^2 type cutoff potential.
  Species Te: No 'logarithmic' tag. Using default grid for free atom:
  | Default logarithmic grid data [bohr] : 0.1000E-03 0.1000E+03 0.1012E+01
  | Will include ionic basis functions of  2.0-fold positive Te                   ion.
  Species Te: On-site basis accuracy parameter (for Gram-Schmidt orthonormalisation) not specified.
  Using default value basis_acc =  0.1000000E-03.
  Species Te                  : Using default innermost maximum threshold i_radial=  2 for radial functions.
  Species Te                  : Default cutoff onset for free atom density etc. : 0.35000000E+01 AA.
  Species Te                  : Basic radial grid will be enhanced according to radial_multiplier =   1, to contain    64 grid points.
 
  Finished reading input file 'control.in'.
 
------------------------------------------------------------


------------------------------------------------------------
          Reading geometry description geometry.in.
------------------------------------------------------------
 * Large trust radius value found - resetting to the current value of max_atomic_move,      0.20000000 A.
  Found keyword 'hessian_file', indicating that this is the continuation of a structure optimization.
  However, the control.in file does not request the geometry to be optimized.
  Ignoring the request for a file 'hessian.aims' to be present.
  | The smallest distance between any two atoms is         2.80786265 AA.
  | The first atom of this pair is atom number                      2 .
  | The second atom of this pair is atom number                     1 .
  | Wigner-Seitz cell of the first atom image           0     1     0 .
  | (The Wigner-Seitz cell of the second atom is 0 0 0  by definition.)

  Symmetry information by spglib:
  | Precision set to  0.1E-04
  | Number of Operations  : 1
  | Space group           : 1
  | International         : P1 2
  | Schoenflies           : C1^1
  Input structure read successfully.
  The structure contains        2 atoms,  and a total of        100.000 electrons.

  Input geometry:
  | Unit cell:
  |       -0.00000170        3.24229352        3.24229440
  |        3.24229724        0.00000227        3.24229662
  |        3.24230079        3.24229928        0.00000317
  | Atomic structure:
  |       Atom                x [A]            y [A]            z [A]
  |    1: Species Cd            0.00000250        0.00000006        0.00003855
  |    2: Species Te            4.86344475        4.86344624        4.86340709

  Lattice parameters for 3D lattice (in Angstroms) :     4.585296    4.585300    4.585305
  Angle(s) between unit vectors (in degrees)       :    59.999934   59.999997   59.999993


  Quantities derived from the lattice vectors (in Angstrom^-1):
  | Reciprocal lattice vector 1: -0.968942  0.968941  0.968941
  | Reciprocal lattice vector 2:  0.968940 -0.968941  0.968942
  | Reciprocal lattice vector 3:  0.968939  0.968941 -0.968940
  | Unit cell volume                               :   0.681692E+02  Angstrom^3

 
  Finished reading input file 'geometry.in'.
 

 
  Consistency checks for stacksize environment parameter are next.
 
  | Maximum stacksize for task 0: unlimited
  | Maximum stacksize for task 1: unlimited
  | Maximum stacksize for task 2: unlimited
  | Maximum stacksize for task 3: unlimited
  | Maximum stacksize for task 4: unlimited
  | Maximum stacksize for task 5: unlimited
  | Current stacksize for task 0: unlimited
  | Current stacksize for task 1: unlimited
  | Current stacksize for task 2: unlimited
  | Current stacksize for task 3: unlimited
  | Current stacksize for task 4: unlimited
  | Current stacksize for task 5: unlimited
 
  Consistency checks for the contents of control.in are next.
 
  MPI_IN_PLACE appears to work with this MPI implementation.
  | Keeping use_mpi_in_place .true. (see manual).
  Target number of points in a grid batch is not set. Defaulting to  100
  Method for grid partitioning is not set. Defaulting to parallel hash+maxmin partitioning.
  Batch size limit is not set. Defaulting to    200
  By default, will store active basis functions for each batch.
  If in need of memory, prune_basis_once .false. can be used to disable this option.
  communication_type for Hartree potential was not specified.
  Defaulting to calc_hartree .
  Defaulting to Pulay charge density mixer.
  Pulay mixer: Number of relevant iterations not set.
  Defaulting to    8 iterations.
  Pulay mixer: Number of initial linear mixing iterations not set.
  Defaulting to    0 iterations.
  Work space size for distributed Hartree potential not set.
  Defaulting to   0.200000E+03 MB.
  Mixing parameter for charge density mixing has not been set.
  Using default: charge_mix_param =     0.0500.
  The mixing parameter will be adjusted in iteration number     2 of the first full s.c.f. cycle only.
  Algorithm-dependent basis array size parameters:
  | n_max_pulay                         :        8
  Maximum number of self-consistency iterations not provided.
  Presetting  1000 iterations.
  Presetting      1001 iterations before the initial mixing cycle
  is restarted anyway using the sc_init_iter criterion / keyword.
  Presetting a factor      1.000 between actual scf density residual
  and density convergence criterion sc_accuracy_rho below which sc_init_iter
  takes no effect.
  Calculation of forces was not defined in control.in. No forces will be calculated.
  Geometry relaxation not requested: no relaxation will be performed.
  No accuracy limit for integral partition fn. given. Defaulting to  0.1000E-14.
  No threshold value for u(r) in integrations given. Defaulting to  0.1000E-05.
  No occupation type (smearing scheme) given. Defaulting to Gaussian broadening, width =  0.1000E-01 eV.
  The width will be adjusted in iteration number     2 of the first full s.c.f. cycle only.
  S.C.F. convergence parameters will be adjusted in iteration number     2 of the first full s.c.f. cycle only.
  No accuracy for occupation numbers given. Defaulting to  0.1000E-12.
  No threshold value for occupation numbers given. Defaulting to  0.0000E+00.
  No accuracy for fermi level given. Defaulting to  0.1000E-19.
  Maximum # of iterations to find E_F not set. Defaulting to  200.
  Preferred method for the eigenvalue solver ('KS_method') not specified in 'control.in'.
  Defaulting to serial version, LAPACK (via ELSI), since more k-points than CPUs available.
  Will not use alltoall communication since running on < 1024 CPUs.
  Threshold for basis singularities not set.
  Default threshold for basis singularities:  0.1000E-04
  partition_type (choice of integration weights) for integrals was not specified.
  | Using a version of the partition function of Stratmann and coworkers ('stratmann_sparse').
  | At each grid point, the set of atoms used to build the partition table is smoothly restricted to
  | only those atoms whose free-atom density would be non-zero at that grid point.
  Partitioning for Hartree potential was not defined. Using partition_type for integrals.
  | Adjusted default value of keyword multip_moments_threshold to:       0.10000000E-11
  | This value may affect high angular momentum components of the Hartree potential in periodic systems.
  Spin handling was not defined in control.in. Defaulting to unpolarized case.
  Angular momentum expansion for Kerker preconditioner not set explicitly.
  | Using default value of   0
  No explicit requirement for turning off preconditioner.
  | By default, it will be turned off when the charge convergence reaches
  | sc_accuracy_rho  =   0.100000E-06
  No special mixing parameter while Kerker preconditioner is on.
  Using default: charge_mix_param =     0.0500.
  No q(lm)/r^(l+1) cutoff set for long-range Hartree potential.
  | Using default value of  0.100000E-09 .
  | Verify using the multipole_threshold keyword.
  Defaulting to new monopole extrapolation.
  Density update method: automatic selection selected.
  Using density matrix based charge density update.
  Using density matrix based charge density update.
  Using packed matrix style: index .
  Defaulting to use time-reversal symmetry for k-point grid.
  WARNING: Switching off the compensation of charge integration errors
  on the 3D integration grid, since you have requested a DFPT calculation.
  This is unfortunately necessary since "compensate_multipole_errors" is
  not yet implemented for DFPT.
  Use the "compensate_multipole_errors" flag to overwrite this behaviour.
  Set 'collect_eigenvectors' to be '.true.' for all serial calculations. This is mandatory.
  Set 'collect_eigenvectors' to be '.true.' for KS_method lapack_fast and serial.
 
  Consistency checks for the contents of geometry.in are next.
 

  Range separation radius for Ewald summation (hartree_convergence_parameter):      4.70785872 bohr.
  Number of empty states per atom not set in control.in .
  | Since you are using a method that relies on the unoccupied spectrum
  | (MP2,GW,RPA et al.), will use the full Hamiltonian size (see below)
  | as the max. possible number of states (occupied plus empty).

  Structure-dependent array size parameters: 
  | Maximum number of distinct radial functions  :       30
  | Maximum number of basis functions            :       86
  | Number of Kohn-Sham states (occupied + empty):       86
------------------------------------------------------------

------------------------------------------------------------
          Preparing all fixed parts of the calculation.
------------------------------------------------------------
  Determining machine precision:
    2.225073858507201E-308
  Setting up grids for atomic and cluster calculations.

  Creating wave function, potential, and density for free atoms.
  Runtime choices for atomic solver:
  | atomic solver xc        : PBE
  | compute density gradient: 1
  | compute kinetic density : F

  Species: Cd

  List of occupied orbitals and eigenvalues:
    n    l              occ      energy [Ha]    energy [eV]
    1    0           2.0000     -1004.952228    -27346.1415
    2    0           2.0000      -145.510972     -3959.5550
    3    0           2.0000       -26.992512      -734.5036
    4    0           2.0000        -3.884870      -105.7127
    5    0           2.0000        -0.201683        -5.4881
    2    1           6.0000      -130.512119     -3551.4155
    3    1           6.0000       -22.104944      -601.5061
    4    1           6.0000        -2.453065       -66.7513
    3    2          10.0000       -14.470763      -393.7695
    4    2          10.0000        -0.424797       -11.5593


  Species: Te

  List of occupied orbitals and eigenvalues:
    n    l              occ      energy [Ha]    energy [eV]
    1    0           2.0000     -1205.190120    -32794.8918
    2    0           2.0000      -179.429385     -4882.5220
    3    0           2.0000       -35.510100      -966.2790
    4    0           2.0000        -6.032854      -164.1623
    5    0           2.0000        -0.548847       -14.9349
    2    1           6.0000      -160.991388     -4380.7986
    3    1           6.0000       -29.564605      -804.4938
    4    1           6.0000        -4.195319      -114.1604
    5    1           4.0000        -0.212579        -5.7846
    3    2          10.0000       -20.595582      -560.4343
    4    2          10.0000        -1.523481       -41.4560


  Adding cutoff potential to free-atom effective potential.
  Creating fixed part of basis set: Ionic, confined, hydrogenic.
 
  Cd                   hydrogenic:
 
  List of hydrogenic basis orbitals: 
    n    l      effective z      eigenvalue [eV]  inner max. [A]     outer max. [A]     outer radius [A]   
    2    1         1.600000        -8.6069           1.306574           1.306574           4.602417
    4    3         7.000000       -41.6658           1.214167           1.214167           4.546495
    3    0         2.800000       -11.1322           0.139490           2.349512           4.602417
    3    1         5.200000       -40.8769           0.305024           1.214167           4.491253
    3    2         3.800000       -21.8139           1.259523           1.259523           4.546495
 
 
  Te                   ion:

  List of free ionic orbitals and eigenvalues:
    n    l      energy [Ha]    energy [eV]
    1    0     -1206.001395    -32816.9677
    2    0      -180.213456     -4903.8576
    3    0       -36.289734      -987.4939
    4    0        -6.806662      -185.2187
    5    0        -1.230780       -33.4912
    2    1      -161.775412     -4402.1329
    3    1       -30.344117      -825.7054
    4    1        -4.968097      -135.1888
    5    1        -0.843350       -22.9487
    3    2       -21.374869      -581.6398
    4    2        -2.290936       -62.3395


  List of ionic basis orbitals and eigenvalues:
    n    l      energy [Ha]    energy [eV]    outer radius [A]
    5    0        -1.230763       -33.4908       4.045637

 
  Te                   hydrogenic:
 
  List of hydrogenic basis orbitals: 
    n    l      effective z      eigenvalue [eV]  inner max. [A]     outer max. [A]     outer radius [A]   
    3    2         3.700000       -20.6750           1.282089           1.282089           4.571717
    4    3         6.000000       -30.5978           1.413813           1.413813           4.571717
    3    1         2.700000       -10.4143           0.586309           2.249797           4.627949
 
  Creating atomic-like basis functions for current effective potential.

  Species Cd                  :

  List of atomic basis orbitals and eigenvalues:
    n    l      energy [Ha]    energy [eV]    outer radius [A]
    1    0     -1004.952228    -27346.1415       0.213976
    2    0      -145.510972     -3959.5550       0.583074
    3    0       -26.992512      -734.5036       1.338913
    4    0        -3.884870      -105.7127       3.308540
    5    0        -0.201683        -5.4881       4.602417
    2    1      -130.512119     -3551.4155       0.597506
    3    1       -22.104944      -601.5061       1.440814
    4    1        -2.453065       -66.7513       3.926140
    3    2       -14.470763      -393.7695       1.668472
    4    2        -0.424797       -11.5593       4.491253


  Species Te                  :

  List of atomic basis orbitals and eigenvalues:
    n    l      energy [Ha]    energy [eV]    outer radius [A]
    1    0     -1205.190120    -32794.8918       0.195117
    2    0      -179.429385     -4882.5220       0.531683
    3    0       -35.510100      -966.2790       1.176937
    4    0        -6.032854      -164.1623       2.735843
    5    0        -0.548847       -14.9349       4.516168
    2    1      -160.991388     -4380.7986       0.544843
    3    1       -29.564605      -804.4938       1.266511
    4    1        -4.195319      -114.1604       3.168123
    5    1        -0.212579        -5.7846       4.571717
    3    2       -20.595582      -560.4343       1.431203
    4    2        -1.523481       -41.4560       4.196765

  Assembling full basis from fixed parts.
  | Species Cd :   atomic orbital   1 s accepted.
  | Species Cd :   atomic orbital   2 s accepted.
  | Species Cd :   atomic orbital   3 s accepted.
  | Species Cd :   atomic orbital   4 s accepted.
  | Species Cd :   atomic orbital   5 s accepted.
  | Species Cd :    hydro orbital   3 s accepted.
  | Species Cd :   atomic orbital   2 p accepted.
  | Species Cd :   atomic orbital   3 p accepted.
  | Species Cd :   atomic orbital   4 p accepted.
  | Species Cd :    hydro orbital   3 p accepted.
  | Species Cd :    hydro orbital   2 p accepted.
  | Species Cd :   atomic orbital   3 d accepted.
  | Species Cd :   atomic orbital   4 d accepted.
  | Species Cd :    hydro orbital   3 d accepted.
  | Species Cd :    hydro orbital   4 f accepted.
  | Species Te :   atomic orbital   1 s accepted.
  | Species Te :   atomic orbital   2 s accepted.
  | Species Te :   atomic orbital   3 s accepted.
  | Species Te :   atomic orbital   4 s accepted.
  | Species Te :    ionic orbital   5 s accepted.
  | Species Te :   atomic orbital   5 s accepted.
  | Species Te :   atomic orbital   2 p accepted.
  | Species Te :   atomic orbital   3 p accepted.
  | Species Te :   atomic orbital   4 p accepted.
  | Species Te :   atomic orbital   5 p accepted.
  | Species Te :    hydro orbital   3 p accepted.
  | Species Te :   atomic orbital   3 d accepted.
  | Species Te :   atomic orbital   4 d accepted.
  | Species Te :    hydro orbital   3 d accepted.
  | Species Te :    hydro orbital   4 f accepted.
 
  Basis size parameters after reduction:
  | Total number of radial functions:       30
  | Total number of basis functions :       86
 
  Per-task memory consumption for arrays in subroutine allocate_ext:
  |          11.170376MB.
  Testing on-site integration grid accuracy.
  |  Species  Function  <phi|h_atom|phi> (log., in eV)  <phi|h_atom|phi> (rad., in eV)
           1        1             -27346.1414740300             -27346.0877548099 ***
           1        2              -3959.5550189636              -3959.5541934178
           1        3               -734.5036354788               -734.5036031563
           1        4               -105.7126932808               -105.7126908100
           1        5                 -5.4968462690                 -5.5039174565
           1        6                  6.2278835096                  6.1287984038 ***
           1        7              -3551.4154558044              -3551.4154537844
           1        8               -601.5061279336               -601.5061256530
           1        9                -66.7512841207                -66.7512830248
           1       10                  2.4482690991                  2.4481544936
           1       11                  8.5190814064                  8.4038211019 ***
           1       12               -393.7694963194               -393.7694957690
           1       13                -11.5593422264                -11.5593671337
           1       14                 11.6269145692                 11.6219408288
           1       15                 20.8349845303                 20.8345732567
           2       16             -32794.8917554015             -32794.8207624302 ***
           2       17              -4882.5219893742              -4882.5208489942
           2       18               -966.2789830371               -966.2789340972
           2       19               -164.1623014115               -164.1622982691
           2       20                -14.7555985338                -14.7557021640
           2       21                  5.4227913449                  5.4196149694
           2       22              -4380.7985727381              -4380.7985681865
           2       23               -804.4938282293               -804.4938244933
           2       24               -114.1604295167               -114.1604283512
           2       25                 -5.7898299384                 -5.7935051375
           2       26                  6.3964828067                  6.3136140479 ***
           2       27               -560.4343039286               -560.4343025566
           2       28                -41.4560249156                -41.4560244044
           2       29                  5.4171856940                  5.4128506235
           2       30                 13.3071223267                 13.3042615902
 * Note: Onsite integrals marked "***" above are less accurate than
 * onsite_accuracy_threshold =    0.03000 eV. Usually, this is harmless.
 * However, one integral did have a negative value. This integral could be important.
 * When in doubt, tighten the "radial" and/or "radial_multiplier" flags to check.

  Preparing densities etc. for the partition functions (integrals / Hartree potential).

  Preparations completed.
  max(cpu_time)          :      0.498 s.
  Wall clock time (cpu1) :      0.498 s.
------------------------------------------------------------

  Initializing index lists of integration centers etc. from given atomic structure:
  Mapping all atomic coordinates to central unit cell.

  Initializing the k-points
  Using symmetry for reducing the k-points
  | k-points reduced from:     4096 to     2052
  | Number of k-points                             :      2052
  | Consuming     131328 KiB for k_phase_exx.
  The eigenvectors in the calculations are COMPLEX.
  | K-points in task   0:       342
  | K-points in task   1:       342
  | K-points in task   2:       342
  | K-points in task   3:       342
  | K-points in task   4:       342
  | K-points in task   5:       342
  | Number of basis functions in the Hamiltonian integrals :      1576
  | Number of basis functions in a single unit cell        :        86
  | Number of centers in hartree potential         :       594
  | Number of centers in hartree multipole         :       190
  | Number of centers in electron density summation:       124
  | Number of centers in basis integrals           :       148
  | Number of centers in integrals                 :        57
  | Number of centers in hamiltonian               :       124
  | Consuming       2244 KiB for k_phase.
  | Number of super-cells (origin) [n_cells]                     :        1331
  | Number of super-cells (after PM_index) [n_cells]             :          70
  | Number of super-cells in hamiltonian [n_cells_in_hamiltonian]:          70
  | Size of matrix packed + index [n_hamiltonian_matrix_size] :      100363
  | Size of matrix packed + index (no_symmetry):      197801

------------------------------------------------------------
          Begin self-consistency loop: Initialization.

          Date     :  20230816, Time     :  210045.530
------------------------------------------------------------
  | Estimated reciprocal-space cutoff momentum G_max:         1.96458638 bohr^-1 .
  | Reciprocal lattice points for long-range Hartree potential:      58
  Partitioning the integration grid into batches with parallel hashing+maxmin method.
  | Number of batches:      288
  | Maximal batch size:      97
  | Minimal batch size:      65
  | Average batch size:      71.667
  | Standard deviation of batch sizes:       6.157

  Integration load balanced across     6 MPI tasks.
  Work distribution over tasks is as follows:
  Task     0 has       3451 integration points.
  Task     1 has       3453 integration points.
  Task     2 has       3483 integration points.
  Task     3 has       3444 integration points.
  Task     4 has       3423 integration points.
  Task     5 has       3386 integration points.
  Initializing partition tables, free-atom densities, potentials, etc. across the integration grid (initialize_grid_storage).
  | initialize_grid_storage: Actual outermost partition radius vs. multipole_radius_free
  | (-- VB: in principle, multipole_radius_free should be larger, hence this output)
  | Species        1: Confinement radius =              4.999999999999999 AA, multipole_radius_free =              5.013611646002804 AA.
  | Species        1: outer_partition_radius set to              5.013611646002804 AA .
  | Species        2: Confinement radius =              4.999999999999999 AA, multipole_radius_free =              5.041424710192624 AA.
  | Species        2: outer_partition_radius set to              5.041424710192624 AA .
  | The sparse table of interatomic distances needs        108.02 kbyte instead of       175.23 kbyte of memory.
  | Net number of integration points:    20640
  | of which are non-zero points    :    19620
  | Numerical average free-atom electrostatic potential    :    -13.70680193 eV
  Renormalizing the initial density to the exact electron count on the 3D integration grid.
  | Initial density: Formal number of electrons (from input files) :     100.0000000000
  | Integrated number of electrons on 3D grid     :     100.0014693585
  | Charge integration error                      :       0.0014693585
  | Normalization factor for density and gradient :       0.9999853066
  Obtaining max. number of non-zero basis functions in each batch (get_n_compute_maxes).
  | Maximal number of non-zero basis functions:      527 in task     0
  | Maximal number of non-zero basis functions:      543 in task     1
  | Maximal number of non-zero basis functions:      496 in task     2
  | Maximal number of non-zero basis functions:      542 in task     3
  | Maximal number of non-zero basis functions:      511 in task     4
  | Maximal number of non-zero basis functions:      543 in task     5
  Allocating       38.596 MB for KS_eigenvector_complex
  Integrating Hamiltonian matrix: batch-based integration.
  Time summed over all CPUs for integration: real work        0.778 s, elapsed        0.789 s
  Integrating overlap matrix.
  Time summed over all CPUs for integration: real work        0.505 s, elapsed        0.512 s

  Updating Kohn-Sham eigenvalues and eigenvectors using ELSI and the (modified) LAPACK eigensolver.

  Obtaining occupation numbers and electronic chemical potential using ELSI.
  | Note that, for insulating systems, the printed 'chemical potential' value is not uniquely defined.
  | It can be anywhere in the energy gap, as long as it correctly separates occupied and unoccupied states.
  | In systems with a gap, the physically relevant chemical potential is the VBM or HOMO.

  | Chemical potential (Fermi level):    -4.25902013 eV
  Writing Kohn-Sham eigenvalues.
  K-point:       1 at    0.000000    0.000000    0.000000 (in units of recip. lattice)

  State    Occupation    Eigenvalue [Ha]    Eigenvalue [eV]
      1       2.00000       -1205.190778       -32794.90967
      2       2.00000       -1004.954753       -27346.21019
      3       2.00000        -179.432483        -4882.60629
      4       2.00000        -160.994810        -4380.89168
      5       2.00000        -160.994810        -4380.89168
      6       2.00000        -160.994810        -4380.89168
      7       2.00000        -145.515100        -3959.66732
      8       2.00000        -130.516434        -3551.53286
      9       2.00000        -130.516434        -3551.53286
     10       2.00000        -130.516434        -3551.53286
     11       2.00000         -35.513695         -966.37682
     12       2.00000         -29.568268         -804.59350
     13       2.00000         -29.568268         -804.59350
     14       2.00000         -29.568268         -804.59350
     15       2.00000         -26.997203         -734.63126
     16       2.00000         -22.109678         -601.63494
     17       2.00000         -22.109678         -601.63494
     18       2.00000         -22.109678         -601.63494
     19       2.00000         -20.599210         -560.53302
     20       2.00000         -20.599210         -560.53302
     21       2.00000         -20.599210         -560.53302
     22       2.00000         -20.599207         -560.53294
     23       2.00000         -20.599207         -560.53294
     24       2.00000         -14.475454         -393.89714
     25       2.00000         -14.475454         -393.89714
     26       2.00000         -14.475454         -393.89714
     27       2.00000         -14.475447         -393.89696
     28       2.00000         -14.475447         -393.89696
     29       2.00000          -6.037831         -164.29775
     30       2.00000          -4.200626         -114.30486
     31       2.00000          -4.200626         -114.30485
     32       2.00000          -4.200626         -114.30485
     33       2.00000          -3.892192         -105.91194
     34       2.00000          -2.461271          -66.97460
     35       2.00000          -2.461271          -66.97459
     36       2.00000          -2.461270          -66.97458
     37       2.00000          -1.530193          -41.63867
     38       2.00000          -1.530193          -41.63866
     39       2.00000          -1.530192          -41.63865
     40       2.00000          -1.529748          -41.62655
     41       2.00000          -1.529748          -41.62655
     42       2.00000          -0.605810          -16.48494
     43       2.00000          -0.452258          -12.30655
     44       2.00000          -0.452256          -12.30651
     45       2.00000          -0.452254          -12.30646
     46       2.00000          -0.439338          -11.95501
     47       2.00000          -0.439338          -11.95501
     48       2.00000          -0.190532           -5.18463
     49       2.00000          -0.190530           -5.18459
     50       2.00000          -0.190529           -5.18456
     51       0.00000          -0.150468           -4.09444
     52       0.00000          -0.003022           -0.08223
     53       0.00000          -0.003020           -0.08218
     54       0.00000          -0.003018           -0.08213
     55       0.00000           0.115040            3.13039
     56       0.00000           0.188016            5.11618
     57       0.00000           0.188017            5.11621
     58       0.00000           0.251792            6.85161
     59       0.00000           0.251797            6.85174
     60       0.00000           0.251800            6.85183
     61       0.00000           0.554473           15.08798
     62       0.00000           0.554477           15.08809
     63       0.00000           0.554480           15.08818
     64       0.00000           0.587082           15.97532
     65       0.00000           0.668248           18.18396
     66       0.00000           0.668250           18.18401
     67       0.00000           0.668251           18.18405
     68       0.00000           0.753316           20.49876
     69       0.00000           0.753319           20.49887
     70       0.00000           0.753326           20.49903
     71       0.00000           0.875381           23.82034
     72       0.00000           0.896026           24.38212
     73       0.00000           0.896028           24.38216
     74       0.00000           1.005209           27.35312
     75       0.00000           1.005213           27.35324
     76       0.00000           1.005216           27.35332
     77       0.00000           1.111410           30.24301
     78       0.00000           1.111430           30.24354
     79       0.00000           1.111451           30.24412
     80       0.00000           1.303155           35.46064
     81       0.00000           1.369278           37.25995
     82       0.00000           1.369302           37.26060
     83       0.00000           1.369330           37.26136
     84       0.00000           1.469101           39.97626
     85       0.00000           1.469114           39.97663
     86       0.00000           1.469130           39.97705

  What follows are estimated values for band gap, HOMO, LUMO, etc.
  | They are estimated on a discrete k-point grid and not necessarily exact.
  | For converged numbers, create a DOS and/or band structure plot on a denser k-grid.

  Highest occupied state (VBM) at     -5.18456088 eV (relative to internal zero)
  | Occupation number:      2.00000000
  | K-point:       1 at    0.000000    0.000000    0.000000 (in units of recip. lattice)

  Lowest unoccupied state (CBM) at    -4.09443858 eV (relative to internal zero)
  | Occupation number:      0.00000000
  | K-point:       1 at    0.000000    0.000000    0.000000 (in units of recip. lattice)

  ESTIMATED overall HOMO-LUMO gap:      1.09012230 eV between HOMO at k-point 1 and LUMO at k-point 1
  | This appears to be a direct band gap.
  The gap value is above 0.2 eV. Unless you are using a very sparse k-point grid,
  this system is most likely an insulator or a semiconductor.
  Calculating total energy contributions from superposition of free atom densities.

  Total energy components:
  | Sum of eigenvalues            :       -7687.41976015 Ha     -209185.33490631 eV
  | XC energy correction          :        -332.14041886 Ha       -9038.00064566 eV
  | XC potential correction       :         433.35898859 Ha       11792.29806509 eV
  | Free-atom electrostatic energy:       -4972.20479783 Ha     -135300.57656645 eV
  | Hartree energy correction     :           0.00000000 Ha           0.00000000 eV
  | Entropy correction            :          -0.00000000 Ha          -0.00000000 eV
  | ---------------------------
  | Total energy                  :      -12558.40598825 Ha     -341731.61405333 eV
  | Total energy, T -> 0          :      -12558.40598825 Ha     -341731.61405333 eV  <-- do not rely on this value for anything but (periodic) metals
  | Electronic free energy        :      -12558.40598825 Ha     -341731.61405333 eV

  Derived energy quantities:
  | Kinetic energy                :       13122.29617770 Ha      357075.84681431 eV
  | Electrostatic energy          :      -25348.56174709 Ha     -689769.46022198 eV
  | Energy correction for multipole
  | error in Hartree potential    :           0.00000000 Ha           0.00000000 eV
  | Sum of eigenvalues per atom                           :     -104592.66745316 eV
  | Total energy (T->0) per atom                          :     -170865.80702667 eV  <-- do not rely on this value for anything but (periodic) metals
  | Electronic free energy per atom                       :     -170865.80702667 eV
  Initialize hartree_potential_storage
  Max. number of atoms included in rho_multipole:            2

  End scf initialization - timings             :  max(cpu_time)    wall_clock(cpu1)
  | Time for scf. initialization                :        1.376 s           1.377 s
  | Boundary condition initialization           :        0.237 s           0.237 s
  | Integration                                 :        0.221 s           0.221 s
  | Solution of K.-S. eqns.                     :        1.060 s           1.059 s
  | Grid partitioning                           :        0.030 s           0.031 s
  | Preloading free-atom quantities on grid     :        0.052 s           0.051 s
  | Free-atom superposition energy              :        0.008 s           0.009 s
  | Total energy evaluation                     :        0.004 s           0.004 s

  Partial memory accounting:
  | Current value for overall tracked memory usage:
  |   Minimum:       40.511 MB (on task 0)
  |   Maximum:       40.511 MB (on task 0)
  |   Average:       40.511 MB
  | Peak value for overall tracked memory usage:
  |   Minimum:       43.501 MB (on task 2 after allocating wave)
  |   Maximum:       43.979 MB (on task 1 after allocating wave)
  |   Average:       43.815 MB
  | Largest tracked array allocation so far:
  |   Minimum:       38.596 MB (KS_eigenvector_complex on task 0)
  |   Maximum:       38.596 MB (KS_eigenvector_complex on task 0)
  |   Average:       38.596 MB
  Note:  These values currently only include a subset of arrays which are explicitly tracked.
  The "true" memory usage will be greater.
------------------------------------------------------------
  Time for density update prior                :  max(cpu_time)    wall_clock(cpu1)
  | self-consistency iterative process          :        0.314 s           0.314 s
------------------------------------------------------------
Convergence:    q app. |  density  | eigen (eV) | Etot (eV) |             . |       CPU time |     Clock time
  SCF    1 :  0.17E-02 |  0.79E-01 |  -0.44E+01 |  0.32E-01 |             . |        1.439 s |        1.438 s
  SCF    2 :  0.36E-02 |  0.73E-01 |  -0.96E+01 |  0.17E+00 |             . |        1.458 s |        1.458 s
  SCF    3 :  0.37E-02 |  0.38E-01 |  -0.65E+01 |  0.18E-01 |             . |        1.463 s |        1.462 s
  SCF    4 :  0.25E-02 |  0.30E-01 |  -0.59E+01 |  0.42E-02 |             . |        1.471 s |        1.471 s
  SCF    5 :  0.16E-02 |  0.13E-01 |   0.81E+01 |  0.14E-02 |             . |        1.466 s |        1.466 s
  SCF    6 :  0.15E-02 |  0.40E-02 |   0.31E+01 |  0.19E-03 |             . |        1.467 s |        1.467 s
  SCF    7 :  0.15E-02 |  0.18E-02 |   0.29E+01 |  0.29E-04 |             . |        1.463 s |        1.463 s
  SCF    8 :  0.15E-02 |  0.28E-03 |  -0.26E+00 |  0.88E-06 |             . |        1.463 s |        1.463 s
  SCF    9 :  0.15E-02 |  0.59E-04 |  -0.10E-01 |  0.27E-06 |             . |        1.467 s |        1.467 s
  SCF   10 :  0.15E-02 |  0.52E-04 |  -0.75E-01 |  0.10E-05 |             . |        1.469 s |        1.469 s
  SCF   11 :  0.15E-02 |  0.87E-06 |   0.17E-03 |  0.89E-07 |             . |        1.468 s |        1.468 s
  SCF   12 :  0.15E-02 |  0.52E-06 |  -0.64E-03 |  0.99E-08 |             . |        1.472 s |        1.472 s
  SCF   13 :  0.15E-02 |  0.98E-07 |  -0.41E-04 | -0.51E-08 |             . |        1.154 s |        1.154 s

  Total energy components:
  | Sum of eigenvalues            :       -7687.88676523 Ha     -209198.04276115 eV
  | XC energy correction          :        -332.13253811 Ha       -9037.78619955 eV
  | XC potential correction       :         433.34706181 Ha       11791.97352086 eV
  | Free-atom electrostatic energy:       -4972.20479783 Ha     -135300.57656645 eV
  | Hartree energy correction     :           0.47925327 Ha          13.04114497 eV
  | Entropy correction            :           0.00000000 Ha           0.00000000 eV
  | ---------------------------
  | Total energy                  :      -12558.39778609 Ha     -341731.39086132 eV
  | Total energy, T -> 0          :      -12558.39778609 Ha     -341731.39086132 eV  <-- do not rely on this value for anything but (periodic) metals
  | Electronic free energy        :      -12558.39778609 Ha     -341731.39086132 eV

  Derived energy quantities:
  | Kinetic energy                :       13122.35144186 Ha      357077.35062866 eV
  | Electrostatic energy          :      -25348.61668984 Ha     -689770.95529044 eV
  | Energy correction for multipole
  | error in Hartree potential    :           0.00387243 Ha           0.10537415 eV
  | Sum of eigenvalues per atom                           :     -104599.02138058 eV
  | Total energy (T->0) per atom                          :     -170865.69543066 eV  <-- do not rely on this value for anything but (periodic) metals
  | Electronic free energy per atom                       :     -170865.69543066 eV
  What follows are estimated values for band gap, HOMO, LUMO, etc.
  | They are estimated on a discrete k-point grid and not necessarily exact.
  | For converged numbers, create a DOS and/or band structure plot on a denser k-grid.

  Highest occupied state (VBM) at     -4.91245542 eV (relative to internal zero)
  | Occupation number:      2.00000000
  | K-point:       1 at    0.000000    0.000000    0.000000 (in units of recip. lattice)

  Lowest unoccupied state (CBM) at    -4.13765951 eV (relative to internal zero)
  | Occupation number:      0.00000000
  | K-point:       1 at    0.000000    0.000000    0.000000 (in units of recip. lattice)

  ESTIMATED overall HOMO-LUMO gap:      0.77479590 eV between HOMO at k-point 1 and LUMO at k-point 1
  | This appears to be a direct band gap.
  The gap value is above 0.2 eV. Unless you are using a very sparse k-point grid,
  this system is most likely an insulator or a semiconductor.

  | Chemical Potential                          :    -4.42094699 eV
  | Note that, for insulating systems, the printed 'chemical potential' value is not uniquely defined.
  | It can be anywhere in the energy gap, as long as it correctly separates occupied and unoccupied states.
  | In systems with a gap, the physically relevant chemical potential is the VBM or HOMO.

  Self-consistency cycle converged.


  Energy and forces in a compact form:
  | Total energy uncorrected      :         -0.341731390861322E+06 eV
  | Total energy corrected        :         -0.341731390861322E+06 eV  <-- do not rely on this value for anything but (periodic) metals
  | Electronic free energy        :         -0.341731390861322E+06 eV

 -------------------------------------------------------------------------------
 |              ENTERING DFPT_DIELECTRIC (PERIODIC CALCULATION)                |
 |                                                                             |
 |  Details on the implementation can be found in the following reference:     |
 |                                                                             |
 |    Honghui Shang, Nathaniel Raimbault, Patrick Rinke,                       |
 |     Matthias Scheffler,  Mariana Rossi and Christian Carbogno,              |
 |    'All-Electron, Real-Space Perturbation Theory for Homogeneous            |
 |    Electric Fields: Theory, Implementation, and Application within dft'     |
 |                                                                             |
 |  Please cite New Journal of Physics, 20(7):073040, 2018                     |
 -------------------------------------------------------------------------------


===========================================================================
  before CPSCF, get Omega_MO = <i(k)|-r|j(k)> in MO basis

==========================================================================
  Integrating momentum_matrix_sparse matrix: batch-based integration.
  Time summed over all CPUs for integration: real work        4.833 s, elapsed        4.890 s
  Integrating momentum_matrix_sparse matrix: batch-based integration.
  Time summed over all CPUs for integration: real work        4.825 s, elapsed        4.877 s
  Integrating momentum_matrix_sparse matrix: batch-based integration.
  Time summed over all CPUs for integration: real work        4.814 s, elapsed        4.865 s


===========================================================================
  CPSCF working for j_coord =    1

==========================================================================


--------------------- CPSCF ---------------------------------------
          Begin CP-self-consistency iteration #    1

  Date     :  20230816, Time     :  210109.048
------------------------------------------------------------

  CPSCF convergence accuracy:
  | Change of first_order_density_matrix     :  0.1673E+02
  Integrating first_order_rho: batch-based integration.
  Time summed over all CPUs for integration: real work        2.174 s, elapsed        2.199 s

  Evaluating partitioned Hartree potential by multipole expansion.
  | Analytical far-field extrapolation by fixed multipoles:
  | Hartree multipole sum: apparent total charge =   0.339021E-08
  Summing up the Hartree potential.
  Time summed over all CPUs for potential: real work        1.054 s, elapsed        1.076 s
  | RMS delta_rho error from multipole expansion :   0.586665E-01

  Integrating first-order-Hamiltonian matrix: batch-based integration.
  Time summed over all CPUs for integration: real work       20.443 s, elapsed       20.887 s
  End CPSCF iteration #     1                  :  max(cpu_time)    wall_clock(cpu1)
  | Time for this iteration                     :        4.358 s           4.353 s
  | first_order_DM                              :        0.177 s           0.172 s
  | first_order_density                         :        0.367 s           0.367 s
  | first_order_potential                       :        0.182 s           0.182 s
  | first_order_H                               :        3.482 s           3.482 s
  | Solution of Sternheimer eqns.               :        0.149 s           0.149 s
------------------------------------------------------------

--------------------- CPSCF ---------------------------------------
          Begin CP-self-consistency iteration #    2

  Date     :  20230816, Time     :  210113.401
------------------------------------------------------------

  CPSCF convergence accuracy:
  | Change of first_order_density_matrix     :  0.1323E+02
  Integrating first_order_rho: batch-based integration.
  Time summed over all CPUs for integration: real work        2.176 s, elapsed        2.209 s

  Evaluating partitioned Hartree potential by multipole expansion.
  | Analytical far-field extrapolation by fixed multipoles:
  | Hartree multipole sum: apparent total charge =  -0.366689E-08
  Summing up the Hartree potential.
  Time summed over all CPUs for potential: real work        1.136 s, elapsed        1.166 s
  | RMS delta_rho error from multipole expansion :   0.294913E+00

  Integrating first-order-Hamiltonian matrix: batch-based integration.
  Time summed over all CPUs for integration: real work       20.438 s, elapsed       20.907 s
  End CPSCF iteration #     2                  :  max(cpu_time)    wall_clock(cpu1)
  | Time for this iteration                     :        4.375 s           4.375 s
  | first_order_DM                              :        0.172 s           0.172 s
  | first_order_density                         :        0.368 s           0.368 s
  | first_order_potential                       :        0.197 s           0.197 s
  | first_order_H                               :        3.486 s           3.486 s
  | Solution of Sternheimer eqns.               :        0.149 s           0.149 s
------------------------------------------------------------

--------------------- CPSCF ---------------------------------------
          Begin CP-self-consistency iteration #    3

  Date     :  20230816, Time     :  210117.776
------------------------------------------------------------

  CPSCF convergence accuracy:
  | Change of first_order_density_matrix     :  0.1995E+01
  Integrating first_order_rho: batch-based integration.
  Time summed over all CPUs for integration: real work        2.139 s, elapsed        2.173 s

  Evaluating partitioned Hartree potential by multipole expansion.
  | Analytical far-field extrapolation by fixed multipoles:
  | Hartree multipole sum: apparent total charge =  -0.332181E-08
  Summing up the Hartree potential.
  Time summed over all CPUs for potential: real work        1.130 s, elapsed        1.158 s
  | RMS delta_rho error from multipole expansion :   0.287702E+00

  Integrating first-order-Hamiltonian matrix: batch-based integration.
  Time summed over all CPUs for integration: real work       19.695 s, elapsed       20.309 s
  End CPSCF iteration #     3                  :  max(cpu_time)    wall_clock(cpu1)
  | Time for this iteration                     :        4.266 s           4.266 s
  | first_order_DM                              :        0.171 s           0.171 s
  | first_order_density                         :        0.363 s           0.363 s
  | first_order_potential                       :        0.196 s           0.196 s
  | first_order_H                               :        3.386 s           3.386 s
  | Solution of Sternheimer eqns.               :        0.148 s           0.147 s
------------------------------------------------------------

--------------------- CPSCF ---------------------------------------
          Begin CP-self-consistency iteration #    4

  Date     :  20230816, Time     :  210122.042
------------------------------------------------------------

  CPSCF convergence accuracy:
  | Change of first_order_density_matrix     :  0.1568E+00
  Integrating first_order_rho: batch-based integration.
  Time summed over all CPUs for integration: real work        2.168 s, elapsed        2.197 s

  Evaluating partitioned Hartree potential by multipole expansion.
  | Analytical far-field extrapolation by fixed multipoles:
  | Hartree multipole sum: apparent total charge =  -0.350830E-08
  Summing up the Hartree potential.
  Time summed over all CPUs for potential: real work        1.136 s, elapsed        1.168 s
  | RMS delta_rho error from multipole expansion :   0.287910E+00

  Integrating first-order-Hamiltonian matrix: batch-based integration.
  Time summed over all CPUs for integration: real work       20.376 s, elapsed       20.962 s
  End CPSCF iteration #     4                  :  max(cpu_time)    wall_clock(cpu1)
  | Time for this iteration                     :        4.386 s           4.386 s
  | first_order_DM                              :        0.168 s           0.169 s
  | first_order_density                         :        0.366 s           0.366 s
  | first_order_potential                       :        0.197 s           0.197 s
  | first_order_H                               :        3.495 s           3.495 s
  | Solution of Sternheimer eqns.               :        0.155 s           0.155 s
------------------------------------------------------------

--------------------- CPSCF ---------------------------------------
          Begin CP-self-consistency iteration #    5

  Date     :  20230816, Time     :  210126.428
------------------------------------------------------------

  CPSCF convergence accuracy:
  | Change of first_order_density_matrix     :  0.2195E-01
  Integrating first_order_rho: batch-based integration.
  Time summed over all CPUs for integration: real work        2.193 s, elapsed        2.218 s

  Evaluating partitioned Hartree potential by multipole expansion.
  | Analytical far-field extrapolation by fixed multipoles:
  | Hartree multipole sum: apparent total charge =  -0.347062E-08
  Summing up the Hartree potential.
  Time summed over all CPUs for potential: real work        1.136 s, elapsed        1.166 s
  | RMS delta_rho error from multipole expansion :   0.288091E+00

  Integrating first-order-Hamiltonian matrix: batch-based integration.
  Time summed over all CPUs for integration: real work       20.320 s, elapsed       21.028 s
  End CPSCF iteration #     5                  :  max(cpu_time)    wall_clock(cpu1)
  | Time for this iteration                     :        4.402 s           4.402 s
  | first_order_DM                              :        0.172 s           0.172 s
  | first_order_density                         :        0.370 s           0.370 s
  | first_order_potential                       :        0.197 s           0.197 s
  | first_order_H                               :        3.506 s           3.505 s
  | Solution of Sternheimer eqns.               :        0.151 s           0.150 s
------------------------------------------------------------

--------------------- CPSCF ---------------------------------------
          Begin CP-self-consistency iteration #    6

  Date     :  20230816, Time     :  210130.830
------------------------------------------------------------

  CPSCF convergence accuracy:
  | Change of first_order_density_matrix     :  0.7612E-02
  Integrating first_order_rho: batch-based integration.
  Time summed over all CPUs for integration: real work        2.268 s, elapsed        2.386 s

  Evaluating partitioned Hartree potential by multipole expansion.
  | Analytical far-field extrapolation by fixed multipoles:
  | Hartree multipole sum: apparent total charge =  -0.347881E-08
  Summing up the Hartree potential.
  Time summed over all CPUs for potential: real work        1.183 s, elapsed        1.259 s
  | RMS delta_rho error from multipole expansion :   0.288202E+00

  Integrating first-order-Hamiltonian matrix: batch-based integration.
  Time summed over all CPUs for integration: real work       20.129 s, elapsed       21.311 s
  End CPSCF iteration #     6                  :  max(cpu_time)    wall_clock(cpu1)
  | Time for this iteration                     :        4.507 s           4.508 s
  | first_order_DM                              :        0.171 s           0.171 s
  | first_order_density                         :        0.398 s           0.398 s
  | first_order_potential                       :        0.214 s           0.214 s
  | first_order_H                               :        3.553 s           3.553 s
  | Solution of Sternheimer eqns.               :        0.165 s           0.164 s
------------------------------------------------------------

--------------------- CPSCF ---------------------------------------
          Begin CP-self-consistency iteration #    7

  Date     :  20230816, Time     :  210135.338
------------------------------------------------------------

  CPSCF convergence accuracy:
  | Change of first_order_density_matrix     :  0.3499E-03
  Integrating first_order_rho: batch-based integration.
  Time summed over all CPUs for integration: real work        2.298 s, elapsed        2.497 s

  Evaluating partitioned Hartree potential by multipole expansion.
  | Analytical far-field extrapolation by fixed multipoles:
  | Hartree multipole sum: apparent total charge =  -0.347927E-08
  Summing up the Hartree potential.
  Time summed over all CPUs for potential: real work        1.194 s, elapsed        1.290 s
  | RMS delta_rho error from multipole expansion :   0.288204E+00

  Integrating first-order-Hamiltonian matrix: batch-based integration.
  Time summed over all CPUs for integration: real work       20.438 s, elapsed       21.677 s

  CP-self-consistency cycle converged.

  End CPSCF iteration #     7                  :  max(cpu_time)    wall_clock(cpu1)
  | Time for this iteration                     :        4.597 s           4.596 s
  | first_order_DM                              :        0.182 s           0.182 s
  | first_order_density                         :        0.417 s           0.416 s
  | first_order_potential                       :        0.218 s           0.218 s
  | first_order_H                               :        3.614 s           3.614 s
  | Solution of Sternheimer eqns.               :        0.158 s           0.158 s
------------------------------------------------------------


===========================================================================
  CPSCF working for j_coord =    2

==========================================================================


--------------------- CPSCF ---------------------------------------
          Begin CP-self-consistency iteration #    1

  Date     :  20230816, Time     :  210140.048
------------------------------------------------------------

  CPSCF convergence accuracy:
  | Change of first_order_density_matrix     :  0.1673E+02
  Integrating first_order_rho: batch-based integration.
  Time summed over all CPUs for integration: real work        2.219 s, elapsed        2.305 s

  Evaluating partitioned Hartree potential by multipole expansion.
  | Analytical far-field extrapolation by fixed multipoles:
  | Hartree multipole sum: apparent total charge =   0.621611E-08
  Summing up the Hartree potential.
  Time summed over all CPUs for potential: real work        1.085 s, elapsed        1.142 s
  | RMS delta_rho error from multipole expansion :   0.586665E-01

  Integrating first-order-Hamiltonian matrix: batch-based integration.
  Time summed over all CPUs for integration: real work       20.792 s, elapsed       21.334 s
  End CPSCF iteration #     1                  :  max(cpu_time)    wall_clock(cpu1)
  | Time for this iteration                     :        4.477 s           4.469 s
  | first_order_DM                              :        0.185 s           0.177 s
  | first_order_density                         :        0.384 s           0.384 s
  | first_order_potential                       :        0.193 s           0.193 s
  | first_order_H                               :        3.557 s           3.557 s
  | Solution of Sternheimer eqns.               :        0.157 s           0.157 s
------------------------------------------------------------

--------------------- CPSCF ---------------------------------------
          Begin CP-self-consistency iteration #    2

  Date     :  20230816, Time     :  210144.518
------------------------------------------------------------

  CPSCF convergence accuracy:
  | Change of first_order_density_matrix     :  0.1323E+02
  Integrating first_order_rho: batch-based integration.
  Time summed over all CPUs for integration: real work        2.361 s, elapsed        2.553 s

  Evaluating partitioned Hartree potential by multipole expansion.
  | Analytical far-field extrapolation by fixed multipoles:
  | Hartree multipole sum: apparent total charge =   0.451485E-08
  Summing up the Hartree potential.
  Time summed over all CPUs for potential: real work        1.156 s, elapsed        1.206 s
  | RMS delta_rho error from multipole expansion :   0.294913E+00

  Integrating first-order-Hamiltonian matrix: batch-based integration.
  Time summed over all CPUs for integration: real work       20.719 s, elapsed       21.220 s
  End CPSCF iteration #     2                  :  max(cpu_time)    wall_clock(cpu1)
  | Time for this iteration                     :        4.498 s           4.497 s
  | first_order_DM                              :        0.178 s           0.178 s
  | first_order_density                         :        0.426 s           0.426 s
  | first_order_potential                       :        0.204 s           0.204 s
  | first_order_H                               :        3.538 s           3.538 s
  | Solution of Sternheimer eqns.               :        0.150 s           0.150 s
------------------------------------------------------------

--------------------- CPSCF ---------------------------------------
          Begin CP-self-consistency iteration #    3

  Date     :  20230816, Time     :  210149.015
------------------------------------------------------------

  CPSCF convergence accuracy:
  | Change of first_order_density_matrix     :  0.1995E+01
  Integrating first_order_rho: batch-based integration.
  Time summed over all CPUs for integration: real work        2.182 s, elapsed        2.210 s

  Evaluating partitioned Hartree potential by multipole expansion.
  | Analytical far-field extrapolation by fixed multipoles:
  | Hartree multipole sum: apparent total charge =   0.456449E-08
  Summing up the Hartree potential.
  Time summed over all CPUs for potential: real work        1.133 s, elapsed        1.162 s
  | RMS delta_rho error from multipole expansion :   0.287702E+00

  Integrating first-order-Hamiltonian matrix: batch-based integration.
  Time summed over all CPUs for integration: real work       20.082 s, elapsed       20.585 s
  End CPSCF iteration #     3                  :  max(cpu_time)    wall_clock(cpu1)
  | Time for this iteration                     :        4.320 s           4.321 s
  | first_order_DM                              :        0.171 s           0.171 s
  | first_order_density                         :        0.369 s           0.369 s
  | first_order_potential                       :        0.197 s           0.196 s
  | first_order_H                               :        3.432 s           3.432 s
  | Solution of Sternheimer eqns.               :        0.149 s           0.150 s
------------------------------------------------------------

--------------------- CPSCF ---------------------------------------
          Begin CP-self-consistency iteration #    4

  Date     :  20230816, Time     :  210153.336
------------------------------------------------------------

  CPSCF convergence accuracy:
  | Change of first_order_density_matrix     :  0.1568E+00
  Integrating first_order_rho: batch-based integration.
  Time summed over all CPUs for integration: real work        2.171 s, elapsed        2.199 s

  Evaluating partitioned Hartree potential by multipole expansion.
  | Analytical far-field extrapolation by fixed multipoles:
  | Hartree multipole sum: apparent total charge =   0.449535E-08
  Summing up the Hartree potential.
  Time summed over all CPUs for potential: real work        1.136 s, elapsed        1.165 s
  | RMS delta_rho error from multipole expansion :   0.287910E+00

  Integrating first-order-Hamiltonian matrix: batch-based integration.
  Time summed over all CPUs for integration: real work       20.844 s, elapsed       21.357 s
  End CPSCF iteration #     4                  :  max(cpu_time)    wall_clock(cpu1)
  | Time for this iteration                     :        4.454 s           4.454 s
  | first_order_DM                              :        0.175 s           0.175 s
  | first_order_density                         :        0.367 s           0.367 s
  | first_order_potential                       :        0.197 s           0.197 s
  | first_order_H                               :        3.561 s           3.560 s
  | Solution of Sternheimer eqns.               :        0.150 s           0.151 s
------------------------------------------------------------

--------------------- CPSCF ---------------------------------------
          Begin CP-self-consistency iteration #    5

  Date     :  20230816, Time     :  210157.790
------------------------------------------------------------

  CPSCF convergence accuracy:
  | Change of first_order_density_matrix     :  0.2195E-01
  Integrating first_order_rho: batch-based integration.
  Time summed over all CPUs for integration: real work        2.171 s, elapsed        2.209 s

  Evaluating partitioned Hartree potential by multipole expansion.
  | Analytical far-field extrapolation by fixed multipoles:
  | Hartree multipole sum: apparent total charge =   0.453264E-08
  Summing up the Hartree potential.
  Time summed over all CPUs for potential: real work        1.142 s, elapsed        1.177 s
  | RMS delta_rho error from multipole expansion :   0.288091E+00

  Integrating first-order-Hamiltonian matrix: batch-based integration.
  Time summed over all CPUs for integration: real work       20.806 s, elapsed       21.172 s
  End CPSCF iteration #     5                  :  max(cpu_time)    wall_clock(cpu1)
  | Time for this iteration                     :        4.425 s           4.425 s
  | first_order_DM                              :        0.173 s           0.173 s
  | first_order_density                         :        0.368 s           0.368 s
  | first_order_potential                       :        0.199 s           0.199 s
  | first_order_H                               :        3.530 s           3.530 s
  | Solution of Sternheimer eqns.               :        0.150 s           0.150 s
------------------------------------------------------------

--------------------- CPSCF ---------------------------------------
          Begin CP-self-consistency iteration #    6

  Date     :  20230816, Time     :  210202.215
------------------------------------------------------------

  CPSCF convergence accuracy:
  | Change of first_order_density_matrix     :  0.7612E-02
  Integrating first_order_rho: batch-based integration.
  Time summed over all CPUs for integration: real work        2.165 s, elapsed        2.189 s

  Evaluating partitioned Hartree potential by multipole expansion.
  | Analytical far-field extrapolation by fixed multipoles:
  | Hartree multipole sum: apparent total charge =   0.452328E-08
  Summing up the Hartree potential.
  Time summed over all CPUs for potential: real work        1.136 s, elapsed        1.163 s
  | RMS delta_rho error from multipole expansion :   0.288202E+00

  Integrating first-order-Hamiltonian matrix: batch-based integration.
  Time summed over all CPUs for integration: real work       20.764 s, elapsed       20.991 s
  End CPSCF iteration #     6                  :  max(cpu_time)    wall_clock(cpu1)
  | Time for this iteration                     :        4.391 s           4.391 s
  | first_order_DM                              :        0.173 s           0.172 s
  | first_order_density                         :        0.365 s           0.365 s
  | first_order_potential                       :        0.197 s           0.196 s
  | first_order_H                               :        3.500 s           3.500 s
  | Solution of Sternheimer eqns.               :        0.150 s           0.150 s
------------------------------------------------------------

--------------------- CPSCF ---------------------------------------
          Begin CP-self-consistency iteration #    7

  Date     :  20230816, Time     :  210206.606
------------------------------------------------------------

  CPSCF convergence accuracy:
  | Change of first_order_density_matrix     :  0.3489E-03
  Integrating first_order_rho: batch-based integration.
  Time summed over all CPUs for integration: real work        2.183 s, elapsed        2.229 s

[...]
  | RMS delta_rho error from multipole expansion :   0.586665E-01

  Integrating first-order-Hamiltonian matrix: batch-based integration.
  Time summed over all CPUs for integration: real work       20.727 s, elapsed       21.222 s
  End CPSCF iteration #     1                  :  max(cpu_time)    wall_clock(cpu1)
  | Time for this iteration                     :        4.414 s           4.412 s
  | first_order_DM                              :        0.174 s           0.172 s
  | first_order_density                         :        0.367 s           0.367 s
  | first_order_potential                       :        0.184 s           0.184 s
  | first_order_H                               :        3.538 s           3.538 s
  | Solution of Sternheimer eqns.               :        0.150 s           0.150 s
------------------------------------------------------------

--------------------- CPSCF ---------------------------------------
          Begin CP-self-consistency iteration #    2

  Date     :  20230816, Time     :  210215.562
------------------------------------------------------------

  CPSCF convergence accuracy:
  | Change of first_order_density_matrix     :  0.1323E+02
  Integrating first_order_rho: batch-based integration.
  Time summed over all CPUs for integration: real work        2.185 s, elapsed        2.227 s

  Evaluating partitioned Hartree potential by multipole expansion.
  | Analytical far-field extrapolation by fixed multipoles:
  | Hartree multipole sum: apparent total charge =   0.757348E-07
  Summing up the Hartree potential.
  Time summed over all CPUs for potential: real work        1.140 s, elapsed        1.172 s
  | RMS delta_rho error from multipole expansion :   0.294912E+00

  Integrating first-order-Hamiltonian matrix: batch-based integration.
  Time summed over all CPUs for integration: real work       20.723 s, elapsed       20.925 s
  End CPSCF iteration #     2                  :  max(cpu_time)    wall_clock(cpu1)
  | Time for this iteration                     :        4.383 s           4.383 s
  | first_order_DM                              :        0.173 s           0.173 s
  | first_order_density                         :        0.371 s           0.372 s
  | first_order_potential                       :        0.198 s           0.198 s
  | first_order_H                               :        3.489 s           3.489 s
  | Solution of Sternheimer eqns.               :        0.150 s           0.149 s
------------------------------------------------------------

--------------------- CPSCF ---------------------------------------
          Begin CP-self-consistency iteration #    3

  Date     :  20230816, Time     :  210219.946
------------------------------------------------------------

  CPSCF convergence accuracy:
  | Change of first_order_density_matrix     :  0.2075E+01
  Integrating first_order_rho: batch-based integration.
  Time summed over all CPUs for integration: real work        2.169 s, elapsed        2.195 s

  Evaluating partitioned Hartree potential by multipole expansion.
  | Analytical far-field extrapolation by fixed multipoles:
  | Hartree multipole sum: apparent total charge =   0.757429E-07
  Summing up the Hartree potential.
  Time summed over all CPUs for potential: real work        1.135 s, elapsed        1.164 s
  | RMS delta_rho error from multipole expansion :   0.287702E+00

  Integrating first-order-Hamiltonian matrix: batch-based integration.
  Time summed over all CPUs for integration: real work       20.775 s, elapsed       21.115 s
  End CPSCF iteration #     3                  :  max(cpu_time)    wall_clock(cpu1)
  | Time for this iteration                     :        4.411 s           4.410 s
  | first_order_DM                              :        0.172 s           0.172 s
  | first_order_density                         :        0.366 s           0.366 s
  | first_order_potential                       :        0.197 s           0.197 s
  | first_order_H                               :        3.520 s           3.520 s
  | Solution of Sternheimer eqns.               :        0.152 s           0.152 s
------------------------------------------------------------

--------------------- CPSCF ---------------------------------------
          Begin CP-self-consistency iteration #    4

  Date     :  20230816, Time     :  210224.356
------------------------------------------------------------

  CPSCF convergence accuracy:
  | Change of first_order_density_matrix     :  0.1568E+00
  Integrating first_order_rho: batch-based integration.
  Time summed over all CPUs for integration: real work        2.188 s, elapsed        2.234 s

  Evaluating partitioned Hartree potential by multipole expansion.
  | Analytical far-field extrapolation by fixed multipoles:
  | Hartree multipole sum: apparent total charge =   0.748989E-07
  Summing up the Hartree potential.
  Time summed over all CPUs for potential: real work        1.141 s, elapsed        1.175 s
  | RMS delta_rho error from multipole expansion :   0.287910E+00

  Integrating first-order-Hamiltonian matrix: batch-based integration.
  Time summed over all CPUs for integration: real work       20.793 s, elapsed       21.123 s
  End CPSCF iteration #     4                  :  max(cpu_time)    wall_clock(cpu1)
  | Time for this iteration                     :        4.420 s           4.421 s
  | first_order_DM                              :        0.174 s           0.175 s
  | first_order_density                         :        0.373 s           0.372 s
  | first_order_potential                       :        0.199 s           0.199 s
  | first_order_H                               :        3.522 s           3.521 s
  | Solution of Sternheimer eqns.               :        0.149 s           0.150 s
------------------------------------------------------------

--------------------- CPSCF ---------------------------------------
          Begin CP-self-consistency iteration #    5

  Date     :  20230816, Time     :  210228.777
------------------------------------------------------------

  CPSCF convergence accuracy:
  | Change of first_order_density_matrix     :  0.2230E-01
  Integrating first_order_rho: batch-based integration.
  Time summed over all CPUs for integration: real work        2.168 s, elapsed        2.194 s

  Evaluating partitioned Hartree potential by multipole expansion.
  | Analytical far-field extrapolation by fixed multipoles:
  | Hartree multipole sum: apparent total charge =   0.756076E-07
  Summing up the Hartree potential.
  Time summed over all CPUs for potential: real work        1.147 s, elapsed        1.189 s
  | RMS delta_rho error from multipole expansion :   0.288091E+00

  Integrating first-order-Hamiltonian matrix: batch-based integration.
  Time summed over all CPUs for integration: real work       20.722 s, elapsed       21.032 s
  End CPSCF iteration #     5                  :  max(cpu_time)    wall_clock(cpu1)
  | Time for this iteration                     :        4.400 s           4.400 s
  | first_order_DM                              :        0.173 s           0.172 s
  | first_order_density                         :        0.366 s           0.366 s
  | first_order_potential                       :        0.201 s           0.201 s
  | first_order_H                               :        3.506 s           3.506 s
  | Solution of Sternheimer eqns.               :        0.150 s           0.150 s
------------------------------------------------------------

--------------------- CPSCF ---------------------------------------
          Begin CP-self-consistency iteration #    6

  Date     :  20230816, Time     :  210233.177
------------------------------------------------------------

  CPSCF convergence accuracy:
  | Change of first_order_density_matrix     :  0.7612E-02
  Integrating first_order_rho: batch-based integration.
  Time summed over all CPUs for integration: real work        2.164 s, elapsed        2.193 s

  Evaluating partitioned Hartree potential by multipole expansion.
  | Analytical far-field extrapolation by fixed multipoles:
  | Hartree multipole sum: apparent total charge =   0.754622E-07
  Summing up the Hartree potential.
  Time summed over all CPUs for potential: real work        1.134 s, elapsed        1.163 s
  | RMS delta_rho error from multipole expansion :   0.288202E+00

  Integrating first-order-Hamiltonian matrix: batch-based integration.
  Time summed over all CPUs for integration: real work       20.706 s, elapsed       20.969 s
  End CPSCF iteration #     6                  :  max(cpu_time)    wall_clock(cpu1)
  | Time for this iteration                     :        4.386 s           4.386 s
  | first_order_DM                              :        0.172 s           0.172 s
  | first_order_density                         :        0.366 s           0.366 s
  | first_order_potential                       :        0.196 s           0.196 s
  | first_order_H                               :        3.496 s           3.496 s
  | Solution of Sternheimer eqns.               :        0.150 s           0.149 s
------------------------------------------------------------

--------------------- CPSCF ---------------------------------------
          Begin CP-self-consistency iteration #    7

  Date     :  20230816, Time     :  210237.563
------------------------------------------------------------

  CPSCF convergence accuracy:
  | Change of first_order_density_matrix     :  0.3499E-03
  Integrating first_order_rho: batch-based integration.
  Time summed over all CPUs for integration: real work        2.168 s, elapsed        2.193 s

  Evaluating partitioned Hartree potential by multipole expansion.
  | Analytical far-field extrapolation by fixed multipoles:
  | Hartree multipole sum: apparent total charge =   0.754911E-07
  Summing up the Hartree potential.
  Time summed over all CPUs for potential: real work        1.136 s, elapsed        1.166 s
  | RMS delta_rho error from multipole expansion :   0.288204E+00

  Integrating first-order-Hamiltonian matrix: batch-based integration.
  Time summed over all CPUs for integration: real work       20.963 s, elapsed       21.431 s

  CP-self-consistency cycle converged.

  End CPSCF iteration #     7                  :  max(cpu_time)    wall_clock(cpu1)
  | Time for this iteration                     :        4.466 s           4.466 s
  | first_order_DM                              :        0.172 s           0.173 s
  | first_order_density                         :        0.366 s           0.365 s
  | first_order_potential                       :        0.197 s           0.197 s
  | first_order_H                               :        3.573 s           3.573 s
  | Solution of Sternheimer eqns.               :        0.150 s           0.150 s
------------------------------------------------------------
dP_dE (Bohr^3) at every cycle:--->
 (273.380829179098,6.297127792424131E-002) (1.849927301620369E-004,2.96780844601159) (1.557861808887395E-006,3.92914242335506)
 (1.849922848009555E-004,-1.97282284397199) (273.380713581653,5.782211606684481E-002) (-2.295572137289703E-005,1.69791622869977)
 (1.556233705013454E-006,-3.15015274900252) (-2.295457025636161E-005,-1.56683159952133) (273.380681020533,5.485572738896229E-002)
DFPT polarizability (Bohr^3)        xx        yy        zz        xy        xz        yz
  | Polarizability:--->            273.381   273.381   273.381     0.000     0.000    -0.000

DFPT for dielectric_constant:--->
   8.46780894618315       5.053354946033395E-006  4.255534079789036E-008
  5.053342780324930E-006   8.46780578846490      -6.270700910132266E-007
  4.251086668933037E-008 -6.270386465319615E-007   8.46780489900888

                                               :  max(cpu_time)    wall_clock(cpu1)
  | Time for  dielectric calculation            :        0.022 s           0.022 s
===========================================================================

------------------------------------------------------------------------------
  Final output of selected total energy values:

  The following output summarizes some interesting total energy values
  at the end of a run (AFTER all relaxation, molecular dynamics, etc.).

  | Total energy of the DFT / Hartree-Fock s.c.f. calculation      :        -341731.390861322 eV
  | Final zero-broadening corrected energy (caution - metals only) :        -341731.390861322 eV
  | For reference only, the value of 1 Hartree used in FHI-aims is :             27.211384500 eV
  | For reference only, the overall average (free atom contribution
  | + realspace contribution) of the electrostatic potential after
  | s.c.f. convergence is                                          :            -13.765662525 eV

  Before relying on these values, please be sure to understand exactly which
  total energy value is referred to by a given number. Different objects may
  all carry the same name 'total energy'. Definitions:

  Total energy of the DFT / Hartree-Fock s.c.f. calculation:
  | Note that this energy does not include ANY quantities calculated after the
  | s.c.f. cycle, in particular not ANY RPA, MP2, etc. many-body perturbation terms.

  Final zero-broadening corrected energy:
  | For metallic systems only, a broadening of the occupation numbers at the Fermi
  | level can be extrapolated back to zero broadening by an electron-gas inspired
  | formula. For all systems that are not real metals, this value can be
  | meaningless and should be avoided.

------------------------------------------------------------------------------
  Methods described in the following list of references were used in this FHI-aims run.
  If you publish the results, please make sure to cite these reference if they apply.
  FHI-aims is an academic code, and for our developers (often, Ph.D. students
  and postdocs), scientific credit in the community is essential.
  Thank you for helping us!

  For any use of FHI-aims, please cite:

    Volker Blum, Ralf Gehrke, Felix Hanke, Paula Havu, Ville Havu,
    Xinguo Ren, Karsten Reuter, and Matthias Scheffler
    'Ab initio molecular simulations with numeric atom-centered orbitals'
    Computer Physics Communications 180, 2175-2196 (2009)
    http://doi.org/10.1016/j.cpc.2009.06.022


  The provided symmetry information was generated with SPGlib:

    Atsushi Togo, Yusuke Seto, Dimitar Pashov
    SPGlib 1.7.3 obtained from http://spglib.sourceforge.net
    Copyright (C) 2008 Atsushi Togo


  The DFPT (perturbation by an electric field) part of the code was used.
  Here is the corresponding reference:

    Honghui Shang, Nathaniel Raimbault, Mariana Rossi,
    Christian Carbogno, Patrick Rinke and Matthias Scheffler,
    'All-Electron, Real-Space Perturbation Theory for Homogeneous
    Electric Fields: Theory, Implementation, and Application within dft'
    New Journal of Physics, 20(7):073040, 2018


  The ELSI infrastructure was used in your run to solve the Kohn-Sham electronic structure.
  Please check out http://elsi-interchange.org to learn more.
  If scalability is important for your project, please acknowledge ELSI by citing:

    V. W-z. Yu, F. Corsetti, A. Garcia, W. P. Huhn, M. Jacquelin, W. Jia,
    B. Lange, L. Lin, J. Lu, W. Mi, A. Seifitokaldani, A. Vazquez-Mayagoitia,
    C. Yang, H. Yang, and V. Blum
    'ELSI: A unified software interface for Kohn-Sham electronic structure solvers'
    Computer Physics Communications 222, 267-285 (2018).
    http://doi.org/10.1016/j.cpc.2017.09.007


  For the real-space grid partitioning and parallelization used in this calculation, please cite:

    Ville Havu, Volker Blum, Paula Havu, and Matthias Scheffler,
    'Efficient O(N) integration for all-electron electronic structure calculation'
    'using numerically tabulated basis functions'
    Journal of Computational Physics 228, 8367-8379 (2009).
    http://doi.org/10.1016/j.jcp.2009.08.008

  Of course, there are many other important community references, e.g., those cited in the
  above references. Our list is limited to references that describe implementations in the
  FHI-aims code. The reason is purely practical (length of this list) - please credit others as well.

 * A warning was issued further up regarding the accuracy of onsite integrals.
   An integral with a negative eigenvalue was among the flagged integrals.
   In most standard situations, this warning is probably harmless.
   If needed, this can be verified by adjusting the radial_multiplier flag.

------------------------------------------------------------
          Leaving FHI-aims.
          Date     :  20230816, Time     :  210242.084

          Computational steps:
          | Number of self-consistency cycles          :           34
          | Number of SCF (re)initializations          :            1
          | Number of coupled perturbed self-consistency cycles          :            0
          | Number of CPSCF (re)initializations          :            0

          Detailed time accounting                     :  max(cpu_time)    wall_clock(cpu1)
          | Total time                                  :      117.359 s         117.361 s
          | Preparation time                            :        0.498 s           0.498 s
          | Boundary condition initalization            :        0.237 s           0.237 s
          | Grid partitioning                           :        0.030 s           0.031 s
          | Preloading free-atom quantities on grid     :        0.052 s           0.051 s
          | Free-atom superposition energy              :        0.008 s           0.009 s
          | Total time for integrations                 :        1.971 s           1.972 s
          | Total time for solution of K.-S. equations  :       11.414 s          11.414 s
          | Total time for density update               :        4.073 s           4.071 s
          | Total time for mixing & preconditioning     :        0.675 s           0.673 s
          | Total time for Hartree multipole update     :        0.010 s           0.012 s
          | Total time for Hartree multipole sum        :        2.110 s           2.108 s
          | Total time for total energy evaluation      :        0.049 s           0.050 s
          | Total time for scaled ZORA corrections      :        0.000 s           0.000 s
          | Total time first_order_DM                   :        3.654 s           3.640 s
          | Total time first_order_density              :        7.874 s           7.872 s
          | Total time first_order_potential            :        4.173 s           4.172 s
          | Total time first_order_H                    :       73.797 s          73.795 s
          | Total time solving of Sternheimer equations :        3.181 s           3.180 s
          | Total time for dielectric constant          :        0.022 s           0.022 s
          | Total time momentum matrix                  :        0.000 s           0.000 s

          Partial memory accounting:
          | Residual value for overall tracked memory usage across tasks:     0.000000 MB (should be 0.000000 MB)
          | Peak values for overall tracked memory usage:
          |   Minimum:       54.295 MB (on task 0 after allocating DFPT_pulay_mixing::pulay_mix::alphas)
          |   Maximum:       54.295 MB (on task 0 after allocating DFPT_pulay_mixing::pulay_mix::alphas)
          |   Average:       54.295 MB
          | Largest tracked array allocation:
          |   Minimum:       38.596 MB (KS_eigenvector_complex on task 0)
          |   Maximum:       38.596 MB (KS_eigenvector_complex on task 0)
          |   Average:       38.596 MB
          Note:  These values currently only include a subset of arrays which are explicitly tracked.
          The "true" memory usage will be greater.

          Have a nice day.
------------------------------------------------------------
