------------------------------------------------------------
          Invoking FHI-aims ...

          When using FHI-aims, please cite the following reference:

            Volker Blum, Ralf Gehrke, Felix Hanke, Paula Havu,
            Ville Havu, Xinguo Ren, Karsten Reuter, and Matthias Scheffler,
            'Ab Initio Molecular Simulations with Numeric Atom-Centered Orbitals',
            Computer Physics Communications 180, 2175-2196 (2009)

          In addition, many other developments in FHI-aims are likely important for
          your particular application. A partial list of references is given at the end of
          this file. Thank you for giving credit to the authors of these developments.

          For any questions about FHI-aims, please visit our slack channel at

            https://fhi-aims.slack.com

          and our main development and support site at

            https://aims-git.rz-berlin.mpg.de .

          The latter site, in particular, has a wiki to collect information, as well
          as an issue tracker to log discussions, suggest improvements, and report issues
          or bugs. https://aims-git.rz-berlin.mpg.de is also the main development site
          of the project and all new and updated code versions can be obtained there.
          Please send an email to aims-coordinators@fhi-berlin.mpg.de and we will add
          you to these sites. They are for you and everyone is welcome there.

------------------------------------------------------------



  Date     :  20230627, Time     :  151122.099
  Time zero on CPU 1             :   0.155859400000000E+01  s.
  Internal wall clock time zero  :           457110682.099  s.

  FHI-aims created a unique identifier for this run for later identification
  aims_uuid : E757DA0F-1F91-45F2-AC3F-E5C82B74B805

  Build configuration of the current instance of FHI-aims
  -------------------------------------------------------
  FHI-aims version      : 220619
  Commit number         : ad4f367e7
  CMake host system     : Linux-5.4.0-122-generic
  CMake version         : 3.16.3
  Fortran compiler      : /opt/intel/oneapi/mpi/2021.5.1/bin/mpiifort (Intel) version 20.2.5.20211109
  Fortran compiler flags: -O3 -ip -fp-model precise
  C compiler            : /opt/intel/oneapi/compiler/2022.0.2/linux/bin/intel64/icc (Intel) version 20.2.5.20211109
  C compiler flags      : -O3 -ip -fp-model precise -std=gnu99
  ELPA2 kernel          : AVX2
  Using MPI
  Using ScaLAPACK
  Using LibXC
  Using i-PI
  Using RLSY
  Linking against: /opt/intel/oneapi/mkl/2022.1.0/lib/intel64/libmkl_intel_lp64.so
                   /opt/intel/oneapi/mkl/2022.1.0/lib/intel64/libmkl_sequential.so
                   /opt/intel/oneapi/mkl/2022.1.0/lib/intel64/libmkl_core.so
                   /opt/intel/oneapi/mkl/2022.1.0/lib/intel64/libmkl_blacs_intelmpi_lp64.so
                   /opt/intel/oneapi/mkl/2022.1.0/lib/intel64/libmkl_scalapack_lp64.so

  Using       20 parallel tasks.
  Task        0 on host c21000127-lnx reporting.
  Task        1 on host c21000127-lnx reporting.
  Task        2 on host c21000127-lnx reporting.
  Task        3 on host c21000127-lnx reporting.
  Task        4 on host c21000127-lnx reporting.
  Task        5 on host c21000127-lnx reporting.
  Task        6 on host c21000127-lnx reporting.
  Task        7 on host c21000127-lnx reporting.
  Task        8 on host c21000127-lnx reporting.
  Task        9 on host c21000127-lnx reporting.
  Task       10 on host c21000127-lnx reporting.
  Task       11 on host c21000127-lnx reporting.
  Task       12 on host c21000127-lnx reporting.
  Task       13 on host c21000127-lnx reporting.
  Task       14 on host c21000127-lnx reporting.
  Task       15 on host c21000127-lnx reporting.
  Task       16 on host c21000127-lnx reporting.
  Task       17 on host c21000127-lnx reporting.
  Task       18 on host c21000127-lnx reporting.
  Task       19 on host c21000127-lnx reporting.

  Performing system and environment tests:
  *** Environment variable OMP_NUM_THREADS is not set
  *** For performance reasons you might want to set it to 1
  | Checking for ScaLAPACK...
  | Testing pdtran()...
  | All pdtran() tests passed.

  Obtaining array dimensions for all initial allocations:
  
  -----------------------------------------------------------------------
  Parsing control.in (first pass over file, find array dimensions only).
  The contents of control.in will be repeated verbatim below
  unless switched off by setting 'verbatim_writeout .false.' .
  in the first line of control.in .
  -----------------------------------------------------------------------
  
  # production level calculation
  xc                                 pbesol
  k_grid                             8 8 8
  sc_accuracy_rho                    1e-06
  relativistic                       atomic_zora scalar
  output_level                       MD_light
  compute_forces                     .true.
  compute_analytical_stress          .true.
  relax_geometry trm                 5E-3
  relax_unit_cell                    full
  ################################################################################
  #
  #  FHI-aims code project
  #  Volker Blum, Fritz Haber Institute Berlin, 2009
  #
  #  Suggested "tight" defaults for Cd atom (to be pasted into control.in file)
  #
  ################################################################################
    species        Cd
  #     global species definitions
      nucleus             48
      mass                112.411
  #
      l_hartree           6
  #
      cut_pot             4.0  2.0  1.0
      basis_dep_cutoff    1e-4
  #
      radial_base         62 7.0
      radial_multiplier   2
      angular_grids specified
        division   0.4113   50
        division   0.7872  110
        division   1.1524  194
        division   1.3993  302
        division   1.8186  434
  #      division   2.1568  590
  #      division   2.3152  770
  #      division   2.3574  974
  #      division   2.9077 1202
  #      outer_grid  974
        outer_grid  434
  ################################################################################
  #
  #  Definition of "minimal" basis
  #
  ################################################################################
  #     valence basis states
      valence      5  s   2.
      valence      4  p   6.
      valence      4  d  10.
  #     ion occupancy
      ion_occ     5  s   1.
      ion_occ     4  p   6.
      ion_occ     4  d   9.
  ################################################################################
  #
  #  Suggested additional basis functions. For production calculations,
  #  uncomment them one after another (the most important basis functions are
  #  listed first).
  #
  #  Constructed for dimers: 2.15 A, 2.50 A, 3.10 A, 4.00 A, 5.00 A
  #
  ################################################################################
  #  "First tier" - max. impr. -224.92  meV, min. impr. -5.81 meV
       hydro 2 p 1.6
       hydro 4 f 7
       hydro 3 s 2.8
       hydro 3 p 5.2
       hydro 5 g 10.0
       hydro 3 d 3.8
  #  "Second tier" - max. impr. -2.57  meV, min. impr. -0.38 meV
  #     hydro 4 f 17.6
  #     hydro 6 h 13.6
  #     hydro 3 p 7
  #     hydro 5 s 17.6
  #     hydro 3 d 3.4
  #  "Third tier" - max. impr. -0.37 meV, min. impr. -0.09 meV
  #     hydro 3 p 2.4
  #     hydro 4 f 6.4
  #     hydro 4 s 4
  #     hydro 5 f 15.6
  #     hydro 5 g 10.8
  #     hydro 2 p 6.4
  #     hydro 6 h 12.8
  #     hydro 5 d 9.0
  #  Further functions: -0.05 meV and below
  #     hydro 5 d 5.8
  ################################################################################
  #
  #  FHI-aims code project
  #  Volker Blum, Fritz Haber Institute Berlin, 2009
  #
  #  Suggested "tight" defaults for Te atom (to be pasted into control.in file)
  #
  #  2020/09/15 Added g function to "tight" settings, since this creates truly "tight"
  #             but not overly tight defaults. See "intermediate" settings for the past
  #             "tight" settings, which are still very reliable. Consider "intermediate"
  #             for hybrid functionals, for example.
  #
  ################################################################################
    species        Te
  #     global species definitions
      nucleus             52
      mass                127.60
  #
      l_hartree           6
  #
      cut_pot             4.0  2.0  1.0
      basis_dep_cutoff    1e-4
  #
      radial_base         64 7.0
      radial_multiplier   2
      angular_grids specified
        division   0.1259  110
        division   0.8959  194
        division   0.9864  302
        division   1.1196  434
  #      division   1.1922  590
  #      division   1.3098  770
  #      division   2.9404  974
  #      outer_grid  974
        outer_grid  434
  ################################################################################
  #
  #  Definition of "minimal" basis
  #
  ################################################################################
  #     valence basis states
      valence      5  s   2.
      valence      5  p   4.
      valence      4  d  10.
  #     ion occupancy
      ion_occ     5  s   1.
      ion_occ     5  p   3.
      ion_occ     4  d  10.
  ################################################################################
  #
  #  Suggested additional basis functions. For production calculations,
  #  uncomment them one after another (the most important basis functions are
  #  listed first).
  #
  #  Constructed for dimers: 2.15 A, 2.55 A, 3.10 A, 3.60 A, 4.50 A
  #
  ################################################################################
  #  "First tier" - max. impr. -217.34  meV, min. impr. -22.97 meV
       hydro 3 d 3.7
       hydro 4 f 6
       hydro 3 p 2.7
       ionic 5 s auto
  #  "Second tier" - max. impr. -17.80 meV, min. impr. -0.57 meV
       hydro 5 g 9
  #     hydro 4 f 16.4
  #     hydro 6 h 12
  #     hydro 4 p 6.4
  #     hydro 5 f 32.4
  #     hydro 4 d 5
  #     hydro 3 s 2.8
  #  "Third tier" - max. impr. -0.51 meV, min. impr. -0.06 meV
  #     hydro 5 f 8.4
  #     hydro 5 g 11.6
  #     hydro 6 h 15.6
  #     hydro 2 p 1.7
  #     hydro 4 d 9.6
  #     hydro 1 s 6.4
  #  Further functions that fell out of the optimization: -0.17 meV and below
  #     hydro 4 f 33.6
  #     hydro 5 d 6.8
  #     hydro 5 f 16
  
  -----------------------------------------------------------------------
  Completed first pass over input file control.in .
  -----------------------------------------------------------------------
  
  
  -----------------------------------------------------------------------
  Parsing geometry.in (first pass over file, find array dimensions only).
  The contents of geometry.in will be repeated verbatim below
  unless switched off by setting 'verbatim_writeout .false.' .
  in the first line of geometry.in .
  -----------------------------------------------------------------------
  
  # Cd1Te1   [FCC,FCC,cF8] (STD_PRIM doi:10.
  # AFLOW::AIMS BEGIN
  lattice_vector    0.00000000000000   3.30075068358214   3.30075068358214
  lattice_vector    3.30075068358214   0.00000000000000   3.30075068358214
  lattice_vector    3.30075068358214   3.30075068358214   0.00000000000000
  atom_frac    0.00000000000000    0.00000000000000    0.00000000000000  Cd
  atom_frac    0.75000000000000    0.75000000000000    0.75000000000000  Te
  # AFLOW::AIMS END
  
  -----------------------------------------------------------------------
  Completed first pass over input file geometry.in .
  -----------------------------------------------------------------------
  

  Basic array size parameters:
  | Number of species                 :        2
  | Number of atoms                   :        2
  | Number of lattice vectors         :        3
  | Max. basis fn. angular momentum   :        4
  | Max. atomic/ionic basis occupied n:        5
  | Max. number of basis fn. types    :        3
  | Max. radial fns per species/type  :       11
  | Max. logarithmic grid size        :     1454
  | Max. radial integration grid size :      129
  | Max. angular integration grid size:      434
  | Max. angular grid division number :        8
  | Radial grid for Hartree potential :     1454
  | Number of spin channels           :        1

------------------------------------------------------------
          Reading file control.in.
------------------------------------------------------------
  XC: Using PBEsol gradient-corrected functionals.
  Found k-point grid:         8         8         8
  Convergence accuracy of self-consistent charge density:  0.1000E-05
  Scalar relativistic treatment of kinetic energy: on-site free-atom approximation to ZORA.
  Requested output level: MD_light
  Forces will be computed.
  Geometry relaxation: Modified BFGS - TRM (trust radius method) for lattice optimization.
  Convergence accuracy for geometry relaxation: Maximum force <   0.500000E-02 eV/A.
 
  Reading configuration options for species Cd                  .
  | Found nuclear charge :  48.0000
  | Found atomic mass :    112.411000000000      amu
  | Found l_max for Hartree potential  :   6
  | Found cutoff potl. onset [A], width [A], scale factor :    4.00000    2.00000    1.00000
  | Threshold for basis-dependent cutoff potential is   0.100000E-03
  | Found data for basic radial integration grid :    62 points, outermost radius =    7.000 A
  | Found multiplier for basic radial grid :   2
  | Found angular grid specification: user-specified.
  | Specified grid contains     6 separate shells.
  | Check grid settings after all constraints further below.
  | Found free-atom valence shell :  5 s   2.000
  | Found free-atom valence shell :  4 p   6.000
  | Found free-atom valence shell :  4 d  10.000
  | Found free-ion valence shell :  5 s   1.000
  | Found free-ion valence shell :  4 p   6.000
  | Found free-ion valence shell :  4 d   9.000
  | Found hydrogenic basis function :  2 p   1.600
  | Found hydrogenic basis function :  4 f   7.000
  | Found hydrogenic basis function :  3 s   2.800
  | Found hydrogenic basis function :  3 p   5.200
  | Found hydrogenic basis function :  5 g  10.000
  | Found hydrogenic basis function :  3 d   3.800
  Species Cd                  : Missing cutoff potential type.
  Defaulting to exp(1/x)/(1-x)^2 type cutoff potential.
  Species Cd: No 'logarithmic' tag. Using default grid for free atom:
  | Default logarithmic grid data [bohr] : 0.1000E-03 0.1000E+03 0.1012E+01
  Species Cd: On-site basis accuracy parameter (for Gram-Schmidt orthonormalisation) not specified.
  Using default value basis_acc =  0.1000000E-03.
  Species Cd                  : Using default innermost maximum threshold i_radial=  2 for radial functions.
  Species Cd                  : Default cutoff onset for free atom density etc. : 0.40000000E+01 AA.
  Species Cd                  : Basic radial grid will be enhanced according to radial_multiplier =   2, to contain   125 grid points.
 
  Reading configuration options for species Te                  .
  | Found nuclear charge :  52.0000
  | Found atomic mass :    127.600000000000      amu
  | Found l_max for Hartree potential  :   6
  | Found cutoff potl. onset [A], width [A], scale factor :    4.00000    2.00000    1.00000
  | Threshold for basis-dependent cutoff potential is   0.100000E-03
  | Found data for basic radial integration grid :    64 points, outermost radius =    7.000 A
  | Found multiplier for basic radial grid :   2
  | Found angular grid specification: user-specified.
  | Specified grid contains     5 separate shells.
  | Check grid settings after all constraints further below.
  | Found free-atom valence shell :  5 s   2.000
  | Found free-atom valence shell :  5 p   4.000
  | Found free-atom valence shell :  4 d  10.000
  | Found free-ion valence shell :  5 s   1.000
  | Found free-ion valence shell :  5 p   3.000
  | Found free-ion valence shell :  4 d  10.000
  | Found hydrogenic basis function :  3 d   3.700
  | Found hydrogenic basis function :  4 f   6.000
  | Found hydrogenic basis function :  3 p   2.700
  | Found ionic basis function :  5 s , default cutoff radius.
  | Found hydrogenic basis function :  5 g   9.000
  Species Te                  : Missing cutoff potential type.
  Defaulting to exp(1/x)/(1-x)^2 type cutoff potential.
  Species Te: No 'logarithmic' tag. Using default grid for free atom:
  | Default logarithmic grid data [bohr] : 0.1000E-03 0.1000E+03 0.1012E+01
  | Will include ionic basis functions of  2.0-fold positive Te                   ion.
  Species Te: On-site basis accuracy parameter (for Gram-Schmidt orthonormalisation) not specified.
  Using default value basis_acc =  0.1000000E-03.
  Species Te                  : Using default innermost maximum threshold i_radial=  2 for radial functions.
  Species Te                  : Default cutoff onset for free atom density etc. : 0.40000000E+01 AA.
  Species Te                  : Basic radial grid will be enhanced according to radial_multiplier =   2, to contain   129 grid points.
 
  Finished reading input file 'control.in'.
 
------------------------------------------------------------


------------------------------------------------------------
          Reading geometry description geometry.in.
------------------------------------------------------------
  | The smallest distance between any two atoms is         2.85853394 AA.
  | The first atom of this pair is atom number                      1 .
  | The second atom of this pair is atom number                     2 .
  | Wigner-Seitz cell of the first atom image           0     0     0 .
  | (The Wigner-Seitz cell of the second atom is 0 0 0  by definition.)

  Symmetry information by spglib:
  | Precision set to  0.1E-04
  | Number of Operations  : 24
  | Space group           : 216
  | International         : F-43m
  | Schoenflies           : Td^2
  Input structure read successfully.
  The structure contains        2 atoms,  and a total of        100.000 electrons.

  Input geometry:
  | Unit cell:
  |        0.00000000        3.30075068        3.30075068
  |        3.30075068        0.00000000        3.30075068
  |        3.30075068        3.30075068        0.00000000
  | Atomic structure:
  |       Atom                x [A]            y [A]            z [A]
  |    1: Species Cd            0.00000000        0.00000000        0.00000000
  |    2: Species Te            4.95112603        4.95112603        4.95112603

  Lattice parameters for 3D lattice (in Angstroms) :     4.667966    4.667966    4.667966
  Angle(s) between unit vectors (in degrees)       :    60.000000   60.000000   60.000000


  Quantities derived from the lattice vectors (in Angstrom^-1):
  | Reciprocal lattice vector 1: -0.951781  0.951781  0.951781
  | Reciprocal lattice vector 2:  0.951781 -0.951781  0.951781
  | Reciprocal lattice vector 3:  0.951781  0.951781 -0.951781
  | Unit cell volume                               :   0.719231E+02  Angstrom^3

 
  Finished reading input file 'geometry.in'.
 

 
  Consistency checks for stacksize environment parameter are next.
 
  | Maximum stacksize for task 0: unlimited
  | Maximum stacksize for task 1: unlimited
  | Maximum stacksize for task 2: unlimited
  | Maximum stacksize for task 3: unlimited
  | Maximum stacksize for task 4: unlimited
  | Maximum stacksize for task 5: unlimited
  | Maximum stacksize for task 6: unlimited
  | Maximum stacksize for task 7: unlimited
  | Maximum stacksize for task 8: unlimited
  | Maximum stacksize for task 9: unlimited
  | Maximum stacksize for task 10: unlimited
  | Maximum stacksize for task 11: unlimited
  | Maximum stacksize for task 12: unlimited
  | Maximum stacksize for task 13: unlimited
  | Maximum stacksize for task 14: unlimited
  | Maximum stacksize for task 15: unlimited
  | Maximum stacksize for task 16: unlimited
  | Maximum stacksize for task 17: unlimited
  | Maximum stacksize for task 18: unlimited
  | Maximum stacksize for task 19: unlimited
  | Current stacksize for task 0: unlimited
  | Current stacksize for task 1: unlimited
  | Current stacksize for task 2: unlimited
  | Current stacksize for task 3: unlimited
  | Current stacksize for task 4: unlimited
  | Current stacksize for task 5: unlimited
  | Current stacksize for task 6: unlimited
  | Current stacksize for task 7: unlimited
  | Current stacksize for task 8: unlimited
  | Current stacksize for task 9: unlimited
  | Current stacksize for task 10: unlimited
  | Current stacksize for task 11: unlimited
  | Current stacksize for task 12: unlimited
  | Current stacksize for task 13: unlimited
  | Current stacksize for task 14: unlimited
  | Current stacksize for task 15: unlimited
  | Current stacksize for task 16: unlimited
  | Current stacksize for task 17: unlimited
  | Current stacksize for task 18: unlimited
  | Current stacksize for task 19: unlimited
 
  Consistency checks for the contents of control.in are next.
 
  MPI_IN_PLACE appears to work with this MPI implementation.
  | Keeping use_mpi_in_place .true. (see manual).
  Target number of points in a grid batch is not set. Defaulting to  100
  Method for grid partitioning is not set. Defaulting to parallel hash+maxmin partitioning.
  Batch size limit is not set. Defaulting to    200
  By default, will store active basis functions for each batch.
  If in need of memory, prune_basis_once .false. can be used to disable this option.
  communication_type for Hartree potential was not specified.
  Defaulting to calc_hartree .
  Defaulting to Pulay charge density mixer.
  Pulay mixer: Number of relevant iterations not set.
  Defaulting to    8 iterations.
  Pulay mixer: Number of initial linear mixing iterations not set.
  Defaulting to    0 iterations.
  Work space size for distributed Hartree potential not set.
  Defaulting to   0.200000E+03 MB.
  Mixing parameter for charge density mixing has not been set.
  Using default: charge_mix_param =     0.0500.
  The mixing parameter will be adjusted in iteration number     2 of the first full s.c.f. cycle only.
  Algorithm-dependent basis array size parameters:
  | n_max_pulay                         :        8
  Maximum number of self-consistency iterations not provided.
  Presetting  1000 iterations.
  Presetting      1001 iterations before the initial mixing cycle
  is restarted anyway using the sc_init_iter criterion / keyword.
  Presetting a factor      1.000 between actual scf density residual
  and density convergence criterion sc_accuracy_rho below which sc_init_iter
  takes no effect.
  No maximum number of relaxation steps, defaulting to     1000
  Default initial Hessian is Lindh matrix (thres = 15.00) plus  0.200000E+01 eV/A^2 times unity.
  No maximum energy tolerance for TRM/BFGS moves, defaulting to   0.150000E-02
  Maximum energy tolerance by which TRM/BFGS trajectory may increase over multiple steps:   0.300000E-02
  No harmonic length scale. Defaulting to   0.250000E-01 A.
  No trust radius initializer. Defaulting to   0.200000E+00 A.
  Unit cell relaxation: Unit cell will be relaxed fully.
  Unit cell relaxation: Analytical stress will be used.
  Analytical stress will be computed.
  Analytical stress calculation: Only the upper triangle is calculated.
                                 Final output is symmetrized.
  Analytical stress calculation: scf convergence accuracy of stress not set.
                                 Analytical stress self-consistency will not be checked explicitly.
                                 Be sure to set other criteria like sc_accuracy_rho tight enough.
  Forces evaluation will include force correction term due to incomplete self-consistency (default).
  Force calculation: scf convergence accuracy of forces not set.
  Defaulting to 'sc_accuracy_forces not_checked'.
  Handling of forces: Unphysical translation and rotation will be removed from forces.
  No accuracy limit for integral partition fn. given. Defaulting to  0.1000E-14.
  No threshold value for u(r) in integrations given. Defaulting to  0.1000E-05.
  No occupation type (smearing scheme) given. Defaulting to Gaussian broadening, width =  0.1000E-01 eV.
  The width will be adjusted in iteration number     2 of the first full s.c.f. cycle only.
  S.C.F. convergence parameters will be adjusted in iteration number     2 of the first full s.c.f. cycle only.
  No accuracy for occupation numbers given. Defaulting to  0.1000E-12.
  No threshold value for occupation numbers given. Defaulting to  0.0000E+00.
  No accuracy for fermi level given. Defaulting to  0.1000E-19.
  Maximum # of iterations to find E_F not set. Defaulting to  200.
  Preferred method for the eigenvalue solver ('KS_method') not specified in 'control.in'.
  Defaulting to serial version, LAPACK (via ELSI), since more k-points than CPUs available.
  Will not use alltoall communication since running on < 1024 CPUs.
  Threshold for basis singularities not set.
  Default threshold for basis singularities:  0.1000E-04
  partition_type (choice of integration weights) for integrals was not specified.
  | Using a version of the partition function of Stratmann and coworkers ('stratmann_sparse').
  | At each grid point, the set of atoms used to build the partition table is smoothly restricted to
  | only those atoms whose free-atom density would be non-zero at that grid point.
  Partitioning for Hartree potential was not defined. Using partition_type for integrals.
  | Adjusted default value of keyword multip_moments_threshold to:       0.10000000E-11
  | This value may affect high angular momentum components of the Hartree potential in periodic systems.
  Spin handling was not defined in control.in. Defaulting to unpolarized case.
  Angular momentum expansion for Kerker preconditioner not set explicitly.
  | Using default value of   0
  No explicit requirement for turning off preconditioner.
  | By default, it will be turned off when the charge convergence reaches
  | sc_accuracy_rho  =   0.100000E-05
  No special mixing parameter while Kerker preconditioner is on.
  Using default: charge_mix_param =     0.0500.
  No q(lm)/r^(l+1) cutoff set for long-range Hartree potential.
  | Using default value of  0.100000E-09 .
  | Verify using the multipole_threshold keyword.
  Defaulting to new monopole extrapolation.
  Density update method: automatic selection selected.
  Using density matrix based charge density update.
  Using density matrix based charge density update.
  Using packed matrix style: index .
  Geometry relaxation: A file "geometry.in.next_step" is written out by default after each step.
  | This file contains the geometry of the current relaxation step as well as
  | the current Hessian matrix needed to restart the relaxation algorithm.
  | If you do not want part or all of this information, use the keywords
  | "write_restart_geometry" or "hessian_to_restart_geometry" to switch the output off.
  Defaulting to use time-reversal symmetry for k-point grid.
  Charge integration errors on the 3D integration grid will be compensated
  by explicit normalization and distribution of residual charges.
  Use the "compensate_multipole_errors" flag to change this behaviour.
  Set 'collect_eigenvectors' to be '.true.' for all serial calculations. This is mandatory.
  Set 'collect_eigenvectors' to be '.true.' for KS_method lapack_fast and serial.
 
  Consistency checks for the contents of geometry.in are next.
 

  Range separation radius for Ewald summation (hartree_convergence_parameter):      4.79753973 bohr.
  Number of empty states per atom not set in control.in - providing a guess from actual geometry.
  | Total number of empty states used during s.c.f. cycle:       11
  If you use a very high smearing, use empty_states (per atom!) in control.in to increase this value.

  Structure-dependent array size parameters: 
  | Maximum number of distinct radial functions  :       32
  | Maximum number of basis functions            :      104
  | Number of Kohn-Sham states (occupied + empty):       61
------------------------------------------------------------

------------------------------------------------------------
          Preparing all fixed parts of the calculation.
------------------------------------------------------------
  Determining machine precision:
    2.225073858507201E-308
  Setting up grids for atomic and cluster calculations.

  Creating wave function, potential, and density for free atoms.
  Runtime choices for atomic solver:
  | atomic solver xc        : PBE
  | compute density gradient: 1
  | compute kinetic density : F

  Species: Cd

  List of occupied orbitals and eigenvalues:
    n    l              occ      energy [Ha]    energy [eV]
    1    0           2.0000     -1004.957218    -27346.2773
    2    0           2.0000      -145.515725     -3959.6843
    3    0           2.0000       -26.997273      -734.6332
    4    0           2.0000        -3.889678      -105.8435
    5    0           2.0000        -0.206215        -5.6114
    2    1           6.0000      -130.516877     -3551.5449
    3    1           6.0000       -22.109704      -601.6357
    4    1           6.0000        -2.457886       -66.8825
    3    2          10.0000       -14.475513      -393.8988
    4    2          10.0000        -0.429503       -11.6874


  Species: Te

  List of occupied orbitals and eigenvalues:
    n    l              occ      energy [Ha]    energy [eV]
    1    0           2.0000     -1205.196269    -32795.0591
    2    0           2.0000      -179.435283     -4882.6825
    3    0           2.0000       -35.515934      -966.4377
    4    0           2.0000        -6.038599      -164.3187
    5    0           2.0000        -0.553449       -15.0601
    2    1           6.0000      -160.997293     -4380.9593
    3    1           6.0000       -29.570439      -804.6526
    4    1           6.0000        -4.201054      -114.3165
    5    1           4.0000        -0.217175        -5.9096
    3    2          10.0000       -20.601415      -560.5930
    4    2          10.0000        -1.529160       -41.6105


  Adding cutoff potential to free-atom effective potential.
  Creating fixed part of basis set: Ionic, confined, hydrogenic.
 
  Cd                   hydrogenic:
 
  List of hydrogenic basis orbitals: 
    n    l      effective z      eigenvalue [eV]  inner max. [A]     outer max. [A]     outer radius [A]   
    2    1         1.600000        -8.6828           1.322645           1.322645           5.461543
    4    3         7.000000       -41.6672           1.214167           1.214167           5.075279
    3    0         2.800000       -11.6572           0.139490           2.437280           5.461543
    3    1         5.200000       -40.8774           0.305024           1.214167           4.892515
    5    4        10.000000       -54.4226           1.322645           1.322645           5.013612
    3    2         3.800000       -21.8280           1.259523           1.259523           5.395183
 
 
  Te                   ion:

  List of free ionic orbitals and eigenvalues:
    n    l      energy [Ha]    energy [eV]
    1    0     -1206.001395    -32816.9677
    2    0      -180.213456     -4903.8576
    3    0       -36.289734      -987.4939
    4    0        -6.806662      -185.2187
    5    0        -1.230780       -33.4912
    2    1      -161.775412     -4402.1329
    3    1       -30.344117      -825.7054
    4    1        -4.968097      -135.1888
    5    1        -0.843350       -22.9487
    3    2       -21.374869      -581.6398
    4    2        -2.290936       -62.3395


  List of ionic basis orbitals and eigenvalues:
    n    l      energy [Ha]    energy [eV]    outer radius [A]
    5    0        -1.230774       -33.4911       4.407087

 
  Te                   hydrogenic:
 
  List of hydrogenic basis orbitals: 
    n    l      effective z      eigenvalue [eV]  inner max. [A]     outer max. [A]     outer radius [A]   
    3    2         3.700000       -20.6934           1.282089           1.282089           5.425112
    4    3         6.000000       -30.6116           1.413813           1.413813           5.359194
    3    1         2.700000       -10.8497           0.586309           2.305482           5.491841
    5    4         9.000000       -44.0820           1.466627           1.466627           5.359194
 
  Creating atomic-like basis functions for current effective potential.

  Species Cd                  :

  List of atomic basis orbitals and eigenvalues:
    n    l      energy [Ha]    energy [eV]    outer radius [A]
    1    0     -1004.957218    -27346.2773       0.213976
    2    0      -145.515725     -3959.6843       0.583074
    3    0       -26.997273      -734.6332       1.338913
    4    0        -3.889678      -105.8435       3.308540
    5    0        -0.206215        -5.6114       5.395183
    2    1      -130.516877     -3551.5449       0.597506
    3    1       -22.109704      -601.6357       1.440814
    4    1        -2.457886       -66.8825       4.023318
    3    2       -14.475513      -393.8988       1.668472
    4    2        -0.429503       -11.6874       5.264870


  Species Te                  :

  List of atomic basis orbitals and eigenvalues:
    n    l      energy [Ha]    energy [eV]    outer radius [A]
    1    0     -1205.196269    -32795.0591       0.195117
    2    0      -179.435283     -4882.6825       0.531683
    3    0       -35.515934      -966.4377       1.176937
    4    0        -6.038599      -164.3187       2.735843
    5    0        -0.553449       -15.0601       5.294077
    2    1      -160.997293     -4380.9593       0.544843
    3    1       -29.570439      -804.6526       1.266511
    4    1        -4.201054      -114.3165       3.168123
    5    1        -0.217175        -5.9096       5.425112
    3    2       -20.601415      -560.5930       1.431203
    4    2        -1.529160       -41.6105       4.627949

  Assembling full basis from fixed parts.
  | Species Cd :   atomic orbital   1 s accepted.
  | Species Cd :   atomic orbital   2 s accepted.
  | Species Cd :   atomic orbital   3 s accepted.
  | Species Cd :   atomic orbital   4 s accepted.
  | Species Cd :   atomic orbital   5 s accepted.
  | Species Cd :    hydro orbital   3 s accepted.
  | Species Cd :   atomic orbital   2 p accepted.
  | Species Cd :   atomic orbital   3 p accepted.
  | Species Cd :   atomic orbital   4 p accepted.
  | Species Cd :    hydro orbital   3 p accepted.
  | Species Cd :    hydro orbital   2 p accepted.
  | Species Cd :   atomic orbital   3 d accepted.
  | Species Cd :   atomic orbital   4 d accepted.
  | Species Cd :    hydro orbital   3 d accepted.
  | Species Cd :    hydro orbital   4 f accepted.
  | Species Cd :    hydro orbital   5 g accepted.
  | Species Te :   atomic orbital   1 s accepted.
  | Species Te :   atomic orbital   2 s accepted.
  | Species Te :   atomic orbital   3 s accepted.
  | Species Te :   atomic orbital   4 s accepted.
  | Species Te :    ionic orbital   5 s accepted.
  | Species Te :   atomic orbital   5 s accepted.
  | Species Te :   atomic orbital   2 p accepted.
  | Species Te :   atomic orbital   3 p accepted.
  | Species Te :   atomic orbital   4 p accepted.
  | Species Te :   atomic orbital   5 p accepted.
  | Species Te :    hydro orbital   3 p accepted.
  | Species Te :   atomic orbital   3 d accepted.
  | Species Te :   atomic orbital   4 d accepted.
  | Species Te :    hydro orbital   3 d accepted.
  | Species Te :    hydro orbital   4 f accepted.
  | Species Te :    hydro orbital   5 g accepted.
 
  Basis size parameters after reduction:
  | Total number of radial functions:       32
  | Total number of basis functions :      104
 
  Per-task memory consumption for arrays in subroutine allocate_ext:
  |          11.915384MB.
  Testing on-site integration grid accuracy.
  |  Species  Function  <phi|h_atom|phi> (log., in eV)  <phi|h_atom|phi> (rad., in eV)
           1        1             -27346.2772793040             -27346.2747464259
           1        2              -3959.6843403672              -3959.6842972762
           1        3               -734.6331834412               -734.6331779964
           1        4               -105.8435147854               -105.8435133883
           1        5                 -5.6138377288                 -5.6138384973
           1        6                  4.6419223875                  4.6419568040
           1        7              -3551.5449149880              -3551.5449132621
           1        8               -601.6356510518               -601.6356482874
           1        9                -66.8824792406                -66.8824783631
           1       10                  2.3513325627                  2.3513328710
           1       11                  6.7478303284                  6.7477947956
           1       12               -393.8987585839               -393.8987575358
           1       13                -11.6873829513                -11.6873826721
           1       14                 11.3853319321                 11.3853323715
           1       15                 20.7267458925                 20.7267464072
           1       16                 38.7053633822                 38.7053636038
           2       17             -32795.0590846455             -32795.0556605232
           2       18              -4882.6824813465              -4882.6824159868
           2       19               -966.4377413866               -966.4377361228
           2       20               -164.3186507888               -164.3186490966
           2       21                -14.8855865446                -14.8855862180
           2       22                  5.2437428292                  5.2437525172
           2       23              -4380.9592556630              -4380.9592506320
           2       24               -804.6525815679               -804.6525796130
           2       25               -114.3164854912               -114.3164843738
           2       26                 -5.9109395843                 -5.9109349312
           2       27                  4.8569390905                  4.8570662328
           2       28               -560.5930245701               -560.5930241259
           2       29                -41.6105488448                -41.6105483746
           2       30                  5.2198476695                  5.2198521163
           2       31                 13.1245618285                 13.1245643331
           2       32                 29.0453900150                 29.0453912086

  Preparing densities etc. for the partition functions (integrals / Hartree potential).

  Preparations completed.
  max(cpu_time)          :      0.379 s.
  Wall clock time (cpu1) :      0.378 s.
------------------------------------------------------------

  Initializing index lists of integration centers etc. from given atomic structure:
  Mapping all atomic coordinates to central unit cell.

  Initializing the k-points
  Using symmetry for reducing the k-points
  | k-points reduced from:      512 to      260
  | Number of k-points                             :       260
  The eigenvectors in the calculations are COMPLEX.
  | K-points in task   0:        13
  | K-points in task   1:        13
  | K-points in task   2:        13
  | K-points in task   3:        13
  | K-points in task   4:        13
  | K-points in task   5:        13
  | K-points in task   6:        13
  | K-points in task   7:        13
  | K-points in task   8:        13
  | K-points in task   9:        13
  | K-points in task  10:        13
  | K-points in task  11:        13
  | K-points in task  12:        13
  | K-points in task  13:        13
  | K-points in task  14:        13
  | K-points in task  15:        13
  | K-points in task  16:        13
  | K-points in task  17:        13
  | K-points in task  18:        13
  | K-points in task  19:        13
  | Number of basis functions in the Hamiltonian integrals :      2955
  | Number of basis functions in a single unit cell        :       104
  | Number of centers in hartree potential         :       708
  | Number of centers in hartree multipole         :       318
  | Number of centers in electron density summation:       190
  | Number of centers in basis integrals           :       198
  | Number of centers in integrals                 :       101
  | Number of centers in hamiltonian               :       190
  | Consuming        455 KiB for k_phase.
  | Number of super-cells (origin) [n_cells]                     :        2197
  | Number of super-cells (after PM_index) [n_cells]             :         112
  | Number of super-cells in hamiltonian [n_cells_in_hamiltonian]:         112
  | Size of matrix packed + index [n_hamiltonian_matrix_size] :      240177

------------------------------------------------------------
          Begin self-consistency loop: Initialization.

          Date     :  20230627, Time     :  151122.585
------------------------------------------------------------

  Initializing relaxation algorithms.
  Finished initialization of distributed Hessian storage.
  | Global dimension:        15
  | BLACS block size:         1
  | Number of workers:       15

  | Estimated reciprocal-space cutoff momentum G_max:         1.99005523 bohr^-1 .
  | Reciprocal lattice points for long-range Hartree potential:      58
  Partitioning the integration grid into batches with parallel hashing+maxmin method.
  | Number of batches:      727
  | Maximal batch size:     142
  | Minimal batch size:      58
  | Average batch size:      80.490
  | Standard deviation of batch sizes:      20.363

  Integration load balanced across    20 MPI tasks.
  Work distribution over tasks is as follows:
  Task     0 has       2943 integration points.
  Task     1 has       2955 integration points.
  Task     2 has       2940 integration points.
  Task     3 has       2946 integration points.
  Task     4 has       2862 integration points.
  Task     5 has       2973 integration points.
  Task     6 has       2918 integration points.
  Task     7 has       2933 integration points.
  Task     8 has       2963 integration points.
  Task     9 has       2874 integration points.
  Task    10 has       2855 integration points.
  Task    11 has       2970 integration points.
  Task    12 has       2910 integration points.
  Task    13 has       2939 integration points.
  Task    14 has       2854 integration points.
  Task    15 has       2944 integration points.
  Task    16 has       2952 integration points.
  Task    17 has       2912 integration points.
  Task    18 has       2926 integration points.
  Task    19 has       2947 integration points.
  Initializing partition tables, free-atom densities, potentials, etc. across the integration grid (initialize_grid_storage).
  | initialize_grid_storage: Actual outermost partition radius vs. multipole_radius_free
  | (-- VB: in principle, multipole_radius_free should be larger, hence this output)
  | Species        1: Confinement radius =              6.000000000000000 AA, multipole_radius_free =              6.022673730162642 AA.
  | Species        1: outer_partition_radius set to              6.022673730162642 AA .
  | Species        2: Confinement radius =              6.000000000000000 AA, multipole_radius_free =              6.056084577048819 AA.
  | Species        2: outer_partition_radius set to              6.056084577048819 AA .
  | The sparse table of interatomic distances needs        376.32 kbyte instead of       313.63 kbyte of memory.
  | Using the partition_type stratmann_smoother will reduce your memory usage.
  | Net number of integration points:    58516
  | of which are non-zero points    :    51196
  | Numerical average free-atom electrostatic potential    :    -13.16181504 eV
  Renormalizing the initial density to the exact electron count on the 3D integration grid.
  | Initial density: Formal number of electrons (from input files) :     100.0000000000
  | Integrated number of electrons on 3D grid     :     100.0007529167
  | Charge integration error                      :       0.0007529167
  | Normalization factor for density and gradient :       0.9999924709
  Renormalizing the free-atom superposition density to the exact electron count on the 3D integration grid.
  | Formal number of electrons (from input files) :     100.0000000000
  | Integrated number of electrons on 3D grid     :     100.0007529167
  | Charge integration error                      :       0.0007529167
  | Normalization factor for density and gradient :       0.9999924709
  Obtaining max. number of non-zero basis functions in each batch (get_n_compute_maxes).
  | Maximal number of non-zero basis functions:      948 in task     0
  | Maximal number of non-zero basis functions:      882 in task     1
  | Maximal number of non-zero basis functions:      951 in task     2
  | Maximal number of non-zero basis functions:      948 in task     3
  | Maximal number of non-zero basis functions:      967 in task     4
  | Maximal number of non-zero basis functions:      967 in task     5
  | Maximal number of non-zero basis functions:      948 in task     6
  | Maximal number of non-zero basis functions:      925 in task     7
  | Maximal number of non-zero basis functions:      948 in task     8
  | Maximal number of non-zero basis functions:      948 in task     9
  | Maximal number of non-zero basis functions:      919 in task    10
  | Maximal number of non-zero basis functions:      948 in task    11
  | Maximal number of non-zero basis functions:      948 in task    12
  | Maximal number of non-zero basis functions:      890 in task    13
  | Maximal number of non-zero basis functions:      948 in task    14
  | Maximal number of non-zero basis functions:      948 in task    15
  | Maximal number of non-zero basis functions:      951 in task    16
  | Maximal number of non-zero basis functions:      948 in task    17
  | Maximal number of non-zero basis functions:      959 in task    18
  | Maximal number of non-zero basis functions:      959 in task    19
  Allocating        1.258 MB for KS_eigenvector_complex
  Integrating Hamiltonian matrix: batch-based integration.
  Time summed over all CPUs for integration: real work        6.211 s, elapsed        6.472 s
  Integrating overlap matrix.
  Time summed over all CPUs for integration: real work        4.535 s, elapsed        4.791 s
  Decreasing sparse matrix size:
  | Tolerance:  0.1000E-12
  Hamiltonian matrix
  | Array has   188268 nonzero elements out of   240177 elements
  | Sparsity factor is 0.216
  Overlap matrix
  | Array has   173903 nonzero elements out of   240177 elements
  | Sparsity factor is 0.276
  New size of hamiltonian matrix:      190427

  Updating Kohn-Sham eigenvalues and eigenvectors using ELSI and the (modified) LAPACK eigensolver.

  Obtaining occupation numbers and electronic chemical potential using ELSI.
  | Note that, for insulating systems, the printed 'chemical potential' value is not uniquely defined.
  | It can be anywhere in the energy gap, as long as it correctly separates occupied and unoccupied states.
  | In systems with a gap, the physically relevant chemical potential is the VBM or HOMO.

  | Chemical potential (Fermi level):    -5.11647099 eV
  Writing Kohn-Sham eigenvalues.
  K-point:       1 at    0.000000    0.000000    0.000000 (in units of recip. lattice)

  State    Occupation    Eigenvalue [Ha]    Eigenvalue [eV]
      1       2.00000       -1204.550252       -32777.48004
      2       2.00000       -1004.373472       -27330.39274
      3       2.00000        -179.346215        -4880.25882
      4       2.00000        -160.942800        -4379.47643
      5       2.00000        -160.942800        -4379.47643
      6       2.00000        -160.942800        -4379.47643
      7       2.00000        -145.437214        -3957.54796
      8       2.00000        -130.468691        -3550.23371
      9       2.00000        -130.468691        -3550.23371
     10       2.00000        -130.468691        -3550.23371
     11       2.00000         -35.490865         -965.75557
     12       2.00000         -29.557438         -804.29882
     13       2.00000         -29.557438         -804.29882
     14       2.00000         -29.557438         -804.29882
     15       2.00000         -26.975284         -734.03482
     16       2.00000         -22.098764         -601.33796
     17       2.00000         -22.098764         -601.33796
     18       2.00000         -22.098764         -601.33796
     19       2.00000         -20.598846         -560.52311
     20       2.00000         -20.598846         -560.52311
     21       2.00000         -20.598846         -560.52311
     22       2.00000         -20.598843         -560.52304
     23       2.00000         -20.598843         -560.52304
     24       2.00000         -14.475078         -393.88691
     25       2.00000         -14.475078         -393.88691
     26       2.00000         -14.475078         -393.88691
     27       2.00000         -14.475072         -393.88674
     28       2.00000         -14.475072         -393.88674
     29       2.00000          -6.035581         -164.23653
     30       2.00000          -4.200907         -114.31250
     31       2.00000          -4.200907         -114.31250
     32       2.00000          -4.200907         -114.31250
     33       2.00000          -3.892190         -105.91189
     34       2.00000          -2.462762          -67.01517
     35       2.00000          -2.462762          -67.01517
     36       2.00000          -2.462762          -67.01517
     37       2.00000          -1.535026          -41.77019
     38       2.00000          -1.535026          -41.77019
     39       2.00000          -1.535026          -41.77019
     40       2.00000          -1.534619          -41.75910
     41       2.00000          -1.534619          -41.75910
     42       2.00000          -0.611298          -16.63428
     43       2.00000          -0.455944          -12.40687
     44       2.00000          -0.455944          -12.40687
     45       2.00000          -0.455944          -12.40687
     46       2.00000          -0.444168          -12.08643
     47       2.00000          -0.444168          -12.08643
     48       2.00000          -0.205278           -5.58591
     49       2.00000          -0.205278           -5.58591
     50       2.00000          -0.205278           -5.58591
     51       0.00000          -0.173138           -4.71133
     52       0.00000          -0.017464           -0.47523
     53       0.00000          -0.017464           -0.47523
     54       0.00000          -0.017464           -0.47523
     55       0.00000           0.090176            2.45382
     56       0.00000           0.172163            4.68480
     57       0.00000           0.172163            4.68480
     58       0.00000           0.247125            6.72462
     59       0.00000           0.247125            6.72462
     60       0.00000           0.247125            6.72462
     61       0.00000           0.492310           13.39644

  What follows are estimated values for band gap, HOMO, LUMO, etc.
  | They are estimated on a discrete k-point grid and not necessarily exact.
  | For converged numbers, create a DOS and/or band structure plot on a denser k-grid.

  Highest occupied state (VBM) at     -5.58590609 eV (relative to internal zero)
  | Occupation number:      2.00000000
  | K-point:       1 at    0.000000    0.000000    0.000000 (in units of recip. lattice)

  Lowest unoccupied state (CBM) at    -4.71132523 eV (relative to internal zero)
  | Occupation number:      0.00000000
  | K-point:       1 at    0.000000    0.000000    0.000000 (in units of recip. lattice)

  ESTIMATED overall HOMO-LUMO gap:      0.87458085 eV between HOMO at k-point 1 and LUMO at k-point 1
  | This appears to be a direct band gap.
  The gap value is above 0.2 eV. Unless you are using a very sparse k-point grid,
  this system is most likely an insulator or a semiconductor.
  Calculating total energy contributions from superposition of free atom densities.

  Total energy components:
  | Sum of eigenvalues            :       -7683.99642692 Ha     -209092.18126965 eV
  | XC energy correction          :        -326.54695416 Ha       -8885.79472700 eV
  | XC potential correction       :         429.26403612 Ha       11680.86873893 eV
  | Free-atom electrostatic energy:       -4971.56907608 Ha     -135283.27769743 eV
  | Hartree energy correction     :           0.00000000 Ha           0.00000000 eV
  | Entropy correction            :           0.00000000 Ha           0.00000000 eV
  | ---------------------------
  | Total energy                  :      -12552.84842104 Ha     -341580.38495514 eV
  | Total energy, T -> 0          :      -12552.84842104 Ha     -341580.38495514 eV  <-- do not rely on this value for anything but (periodic) metals
  | Electronic free energy        :      -12552.84842104 Ha     -341580.38495514 eV

  Derived energy quantities:
  | Kinetic energy                :       13122.20870827 Ha      357073.46664998 eV
  | Electrostatic energy          :      -25348.51017515 Ha     -689768.05687812 eV
  | Energy correction for multipole
  | error in Hartree potential    :           0.00000000 Ha           0.00000000 eV
  | Sum of eigenvalues per atom                           :     -104546.09063483 eV
  | Total energy (T->0) per atom                          :     -170790.19247757 eV  <-- do not rely on this value for anything but (periodic) metals
  | Electronic free energy per atom                       :     -170790.19247757 eV
  Initialize hartree_potential_storage
  Max. number of atoms included in rho_multipole:            2

  End scf initialization - timings             :  max(cpu_time)    wall_clock(cpu1)
  | Time for scf. initialization                :        0.803 s           0.803 s
  | Boundary condition initialization           :        0.045 s           0.045 s
  | Relaxation initialization                   :        0.001 s           0.001 s
  | Integration                                 :        0.572 s           0.572 s
  | Solution of K.-S. eqns.                     :        0.061 s           0.062 s
  | Grid partitioning                           :        0.090 s           0.089 s
  | Preloading free-atom quantities on grid     :        0.064 s           0.064 s
  | Free-atom superposition energy              :        0.010 s           0.009 s
  | Total energy evaluation                     :        0.000 s           0.001 s

  Partial memory accounting:
  | Current value for overall tracked memory usage:
  |   Minimum:        4.896 MB (on task  0)
  |   Maximum:        4.896 MB (on task  0)
  |   Average:        4.896 MB
  | Peak value for overall tracked memory usage:
  |   Minimum:       14.667 MB (on task  1 after allocating wave)
  |   Maximum:       16.144 MB (on task  4 after allocating wave)
  |   Average:       15.711 MB
  | Largest tracked array allocation so far:
  |   Minimum:        5.935 MB (hamiltonian_shell on task  1)
  |   Maximum:        7.134 MB (hamiltonian_shell on task  4)
  |   Average:        6.781 MB
  Note:  These values currently only include a subset of arrays which are explicitly tracked.
  The "true" memory usage will be greater.
------------------------------------------------------------
  Time for density update prior                :  max(cpu_time)    wall_clock(cpu1)
  | self-consistency iterative process          :        0.539 s           0.539 s
------------------------------------------------------------
Convergence:    q app. |  density  | eigen (eV) | Etot (eV) | forces (eV/A) |       CPU time |     Clock time
  SCF    1 :  0.56E-13 |  0.84E-01 |  -0.24E+01 |  0.37E-01 |             . |        1.148 s |        1.148 s
  SCF    2 :  0.14E-13 |  0.78E-01 |  -0.22E+02 |  0.20E+00 |             . |        1.185 s |        1.185 s
  SCF    3 :  0.76E-14 |  0.38E-01 |  -0.88E+01 |  0.21E-01 |             . |        1.196 s |        1.196 s
  SCF    4 :  0.75E-13 |  0.15E-01 |   0.29E+00 |  0.16E-02 |             . |        1.193 s |        1.193 s
  SCF    5 : -0.74E-14 |  0.49E-02 |  -0.13E+01 |  0.13E-03 |             . |        1.192 s |        1.192 s
  SCF    6 :  0.42E-13 |  0.31E-02 |   0.32E+01 |  0.49E-04 |             . |        1.201 s |        1.201 s
  SCF    7 :  0.13E-13 |  0.12E-02 |  -0.88E+00 |  0.73E-05 |             . |        1.197 s |        1.197 s
  SCF    8 :  0.67E-13 |  0.61E-03 |  -0.60E+00 |  0.72E-05 |             . |        1.192 s |        1.192 s
  SCF    9 :  0.22E-13 |  0.13E-03 |  -0.84E-01 | -0.63E-06 |             . |        1.191 s |        1.190 s
  SCF   10 :  0.34E-13 |  0.29E-04 |   0.39E-01 |  0.34E-07 |             . |        1.191 s |        1.191 s
  SCF   11 : -0.12E-13 |  0.13E-04 |  -0.74E-02 | -0.19E-06 |             . |        1.190 s |        1.190 s
  SCF   12 :  0.43E-13 |  0.21E-05 |   0.15E-02 |  0.11E-07 |             . |        1.190 s |        1.191 s
  SCF   13 : -0.40E-13 |  0.13E-06 |   0.45E-04 |  0.59E-09 |             . |        1.189 s |        1.190 s
  SCF   14 : -0.51E-13 |  0.86E-07 |  -0.40E-05 |  0.40E-08 |      0.22E-05 |        2.867 s |        2.867 s
  SCF   15 :  0.10E-12 |  0.20E-07 |  -0.29E-06 | -0.21E-08 |      0.12E-09 |       17.499 s |       17.499 s

  Total energy components:
  | Sum of eigenvalues            :       -7685.18033418 Ha     -209124.39702521 eV
  | XC energy correction          :        -326.50521443 Ha       -8884.65893099 eV
  | XC potential correction       :         429.20689954 Ha       11679.31397335 eV
  | Free-atom electrostatic energy:       -4971.56907608 Ha     -135283.27769743 eV
  | Hartree energy correction     :           1.20886799 Ha          32.89497165 eV
  | Entropy correction            :          -0.00000000 Ha          -0.00000000 eV
  | ---------------------------
  | Total energy                  :      -12552.83885716 Ha     -341580.12470862 eV
  | Total energy, T -> 0          :      -12552.83885716 Ha     -341580.12470862 eV  <-- do not rely on this value for anything but (periodic) metals
  | Electronic free energy        :      -12552.83885716 Ha     -341580.12470862 eV

  Derived energy quantities:
  | Kinetic energy                :       13121.67343366 Ha      357058.90108664 eV
  | Electrostatic energy          :      -25348.00707639 Ha     -689754.36686428 eV
  | Energy correction for multipole
  | error in Hartree potential    :          -0.00249039 Ha          -0.06776683 eV
  | Sum of eigenvalues per atom                           :     -104562.19851260 eV
  | Total energy (T->0) per atom                          :     -170790.06235431 eV  <-- do not rely on this value for anything but (periodic) metals
  | Electronic free energy per atom                       :     -170790.06235431 eV
  What follows are estimated values for band gap, HOMO, LUMO, etc.
  | They are estimated on a discrete k-point grid and not necessarily exact.
  | For converged numbers, create a DOS and/or band structure plot on a denser k-grid.

  Highest occupied state (VBM) at     -5.30259203 eV (relative to internal zero)
  | Occupation number:      2.00000000
  | K-point:       1 at    0.000000    0.000000    0.000000 (in units of recip. lattice)

  Lowest unoccupied state (CBM) at    -4.79731809 eV (relative to internal zero)
  | Occupation number:      0.00000000
  | K-point:       1 at    0.000000    0.000000    0.000000 (in units of recip. lattice)

  ESTIMATED overall HOMO-LUMO gap:      0.50527395 eV between HOMO at k-point 1 and LUMO at k-point 1
  | This appears to be a direct band gap.
  The gap value is above 0.2 eV. Unless you are using a very sparse k-point grid,
  this system is most likely an insulator or a semiconductor.

  | Chemical Potential                          :    -4.97873228 eV
  | Note that, for insulating systems, the printed 'chemical potential' value is not uniquely defined.
  | It can be anywhere in the energy gap, as long as it correctly separates occupied and unoccupied states.
  | In systems with a gap, the physically relevant chemical potential is the VBM or HOMO.

  Self-consistency cycle converged.

  +-------------------------------------------------------------------+
  |              Analytical stress tensor - Symmetrized               |
  |                  Cartesian components [eV/A**3]                   |
  +-------------------------------------------------------------------+
  |                x                y                z                |
  |                                                                   |
  |  x         0.01265966       0.00000000       0.00000000           |
  |  y         0.00000000       0.01266022      -0.00000000           |
  |  z         0.00000000      -0.00000000       0.01266022           |
  |                                                                   |
  |  Pressure:      -0.01266004   [eV/A**3]                           |
  |                                                                   |
  +-------------------------------------------------------------------+
  Removing unitary transformations (pure translations, rotations) from forces on atoms.
  Atomic forces before filtering:
  | Net force on center of mass :   0.352341E-07 -0.471514E-06 -0.463774E-05 eV/A
  Atomic forces after filtering:
  | Net force on center of mass :   0.106338E-22 -0.425353E-22  0.000000E+00 eV/A

  Energy and forces in a compact form:
  | Total energy uncorrected      :         -0.341580124708624E+06 eV
  | Total energy corrected        :         -0.341580124708624E+06 eV  <-- do not rely on this value for anything but (periodic) metals
  | Electronic free energy        :         -0.341580124708624E+06 eV
  Total atomic forces (unitary forces cleaned) [eV/Ang]:
  |    1          0.596081678706872E-08          0.100168104171493E-06          0.238100416824576E-05
  |    2         -0.596081678706871E-08         -0.100168104171493E-06         -0.238100416824576E-05

  Relaxation / MD: End force evaluation.       :  max(cpu_time)    wall_clock(cpu1)
  | Time for this force evaluation              :       37.166 s          37.169 s

------------------------------------------------------------
  Geometry optimization: Attempting to predict improved coordinates.

  +-------------------------------------------------------------------+
  | Generalized derivatives on lattice vectors [eV/A]                 |
  +-------------------------------------------------------------------+
  |lattice_vector      -0.13792647       0.13793256       0.13793256  |
  |lattice_vector       0.13792647      -0.13793256       0.13793256  |
  |lattice_vector       0.13792647       0.13793256      -0.13793256  |
  +-------------------------------------------------------------------+
  | Forces on lattice vectors cleaned from atomic contributions [eV/A]|
  +-------------------------------------------------------------------+
  |lattice_vector       0.13792647      -0.13793256      -0.13793256  |
  |lattice_vector      -0.13792647       0.13793256      -0.13793256  |
  |lattice_vector      -0.13792647      -0.13793256       0.13793256  |
  +-------------------------------------------------------------------+
  Removing unitary transformations (pure translations, rotations) from forces on atoms.
  Atomic forces before filtering:
  | Net force on center of mass :   0.106338E-22 -0.425353E-22  0.000000E+00 eV/A
  Atomic forces after filtering:
  | Net force on center of mass :   0.000000E+00  0.000000E+00  0.000000E+00 eV/A
  Net remaining forces (excluding translations, rotations) in present geometry:
  || Forces on atoms   || =   0.238100E-05 eV/A.
  || Forces on lattice || =   0.137933E+00 eV/A^3.
  Maximum force component is  0.137933E+00 eV/A.
  Present geometry is not yet converged.

  Relaxation step number      1: Predicting new coordinates.

  Advancing geometry using trust radius method.
  Allocating        1.258 MB for stored_KS_eigenvector_complex
  | Hessian has  0 negative and  3 zero eigenvalues.
  | Positive eigenvalues (eV/A^2): 2.84E+00 ... 3.02E+01
  | Use Quasi-Newton step of length |H^-1 F| = 2.24E-02 A.
  Finished advancing geometry
  | Time :      0.011 s
  Updated atomic structure:
                         x [A]             y [A]             z [A]
  lattice_vector        -0.00000040        3.29160107        3.29160107
  lattice_vector         3.29160168        0.00000020        3.29160147
  lattice_vector         3.29160168        3.29160147        0.00000020

            atom         0.00000000        0.00000004        0.00000084  Cd
            atom         4.93740221        4.93740203        4.93740122  Te

  Fractional coordinates:
                         L1                L2                L3
       atom_frac         0.00000013        0.00000012       -0.00000012  Cd
       atom_frac         0.74999987        0.74999988        0.75000012  Te
------------------------------------------------------------
  Writing the current geometry to file "geometry.in.next_step".
  Writing estimated Hessian matrix to file 'hessian.aims'

  Quantities derived from the lattice vectors (in Angstrom^-1):
  | Reciprocal lattice vector 1: -0.954427  0.954427  0.954427
  | Reciprocal lattice vector 2:  0.954427 -0.954427  0.954427
  | Reciprocal lattice vector 3:  0.954427  0.954427 -0.954427
  | Unit cell volume                               :   0.713266E+02  Angstrom^3

  Range separation radius for Ewald summation (hartree_convergence_parameter):      4.78351461 bohr.

------------------------------------------------------------
          Begin self-consistency loop: Re-initialization.

  Date     :  20230627, Time     :  151159.777
------------------------------------------------------------

  Initializing index lists of integration centers etc. from given atomic structure:
  Mapping all atomic coordinates to central unit cell.

  Initializing the k-points
  Using symmetry for reducing the k-points
  | k-points reduced from:      512 to      260
  | Number of k-points                             :       260
  The eigenvectors in the calculations are COMPLEX.
  | K-points in task   0:        13
  | K-points in task   1:        13
  | K-points in task   2:        13
  | K-points in task   3:        13
  | K-points in task   4:        13
  | K-points in task   5:        13
  | K-points in task   6:        13
  | K-points in task   7:        13
  | K-points in task   8:        13
  | K-points in task   9:        13
  | K-points in task  10:        13
  | K-points in task  11:        13
  | K-points in task  12:        13
  | K-points in task  13:        13
  | K-points in task  14:        13
  | K-points in task  15:        13
  | K-points in task  16:        13
  | K-points in task  17:        13
  | K-points in task  18:        13
  | K-points in task  19:        13
  | Number of basis functions in the Hamiltonian integrals :      2955
  | Number of basis functions in a single unit cell        :       104
  | Number of centers in hartree potential         :       708
  | Number of centers in hartree multipole         :       318
  | Number of centers in electron density summation:       190
  | Number of centers in basis integrals           :       198
  | Number of centers in integrals                 :       101
  | Number of centers in hamiltonian               :       190
  | Consuming        455 KiB for k_phase.
  | Number of super-cells (origin) [n_cells]                     :        2197
  | Number of super-cells (after PM_index) [n_cells]             :         112
  | Number of super-cells in hamiltonian [n_cells_in_hamiltonian]:         112
  | Size of matrix packed + index [n_hamiltonian_matrix_size] :      240327
  Partitioning the integration grid into batches with parallel hashing+maxmin method.
  Initializing partition tables, free-atom densities, potentials, etc. across the integration grid (initialize_grid_storage).
  | Species        1: outer_partition_radius set to              6.022673730162642 AA .
  | Species        2: outer_partition_radius set to              6.056084577048819 AA .
  | Net number of integration points:    58516
  | of which are non-zero points    :    51164
  Renormalizing the initial density to the exact electron count on the 3D integration grid.
  | Initial density: Formal number of electrons (from input files) :     100.0000000000
  | Integrated number of electrons on 3D grid     :     100.0007714651
  | Charge integration error                      :       0.0007714651
  | Normalization factor for density and gradient :       0.9999922854
  Renormalizing the free-atom superposition density to the exact electron count on the 3D integration grid.
  | Formal number of electrons (from input files) :     100.0000000000
  | Integrated number of electrons on 3D grid     :     100.0007714651
  | Charge integration error                      :       0.0007714651
  | Normalization factor for density and gradient :       0.9999922854
  Calculating total energy contributions from superposition of free atom densities.
  Initialize hartree_potential_storage
  Max. number of atoms included in rho_multipole:            2
  Integrating overlap matrix.
  Time summed over all CPUs for integration: real work        4.546 s, elapsed        4.816 s
  Orthonormalizing eigenvectors

  End scf reinitialization - timings           :  max(cpu_time)    wall_clock(cpu1)
  | Time for scf. reinitialization              :        0.504 s           0.505 s
  | Boundary condition initialization           :        0.062 s           0.052 s
  | Integration                                 :        0.243 s           0.243 s
  | Grid partitioning                           :        0.088 s           0.089 s
  | Preloading free-atom quantities on grid     :        0.059 s           0.058 s
  | Free-atom superposition energy              :        0.009 s           0.010 s
  | K.-S. eigenvector reorthonormalization      :        0.010 s           0.010 s
------------------------------------------------------------
  Time for density update prior                :  max(cpu_time)    wall_clock(cpu1)
  | self-consistency iterative process          :        0.557 s           0.557 s
------------------------------------------------------------
Convergence:    q app. |  density  | eigen (eV) | Etot (eV) | forces (eV/A) |       CPU time |     Clock time
  SCF    1 : -0.14E-13 |  0.58E-01 |  -0.21E+06 | -0.34E+06 |             . |        1.183 s |        1.184 s
  SCF    2 :  0.43E-13 |  0.14E-02 |  -0.65E+00 |  0.14E-04 |             . |        1.231 s |        1.231 s
  SCF    3 : -0.29E-13 |  0.80E-03 |  -0.76E+00 |  0.39E-05 |             . |        1.232 s |        1.232 s
  SCF    4 : -0.40E-13 |  0.56E-03 |  -0.44E-01 | -0.29E-05 |             . |        1.230 s |        1.230 s
  SCF    5 : -0.25E-13 |  0.45E-03 |   0.12E+00 |  0.90E-05 |             . |        1.233 s |        1.234 s
  SCF    6 : -0.22E-13 |  0.67E-04 |  -0.69E-01 |  0.53E-06 |             . |        1.233 s |        1.233 s
  SCF    7 :  0.33E-13 |  0.22E-04 |   0.27E-01 | -0.18E-07 |             . |        1.229 s |        1.229 s
  SCF    8 :  0.45E-13 |  0.96E-05 |  -0.67E-02 | -0.90E-07 |             . |        1.228 s |        1.229 s
  SCF    9 : -0.30E-13 |  0.15E-05 |   0.29E-03 |  0.21E-07 |             . |        1.235 s |        1.234 s
  SCF   10 : -0.14E-13 |  0.21E-06 |   0.11E-04 | -0.25E-08 |             . |        1.232 s |        1.231 s
  SCF   11 :  0.70E-14 |  0.25E-07 |  -0.41E-05 |  0.20E-09 |      0.78E-04 |        2.925 s |        2.926 s
  SCF   12 : -0.66E-14 |  0.20E-07 |  -0.16E-04 | -0.40E-09 |      0.10E-06 |       17.861 s |       17.861 s

  Total energy components:
  | Sum of eigenvalues            :       -7685.19852112 Ha     -209124.89191712 eV
  | XC energy correction          :        -326.50881987 Ha       -8884.75704012 eV
  | XC potential correction       :         429.21179532 Ha       11679.44719432 eV
  | Free-atom electrostatic energy:       -4971.54851823 Ha     -135282.71829002 eV
  | Hartree energy correction     :           1.20497662 Ha          32.78908206 eV
  | Entropy correction            :          -0.00000000 Ha          -0.00000000 eV
  | ---------------------------
  | Total energy                  :      -12552.83908729 Ha     -341580.13097089 eV
  | Total energy, T -> 0          :      -12552.83908729 Ha     -341580.13097089 eV  <-- do not rely on this value for anything but (periodic) metals
  | Electronic free energy        :      -12552.83908729 Ha     -341580.13097089 eV

  Derived energy quantities:
  | Kinetic energy                :       13121.69065819 Ha      357059.36979013 eV
  | Electrostatic energy          :      -25348.02092561 Ha     -689754.74372090 eV
  | Energy correction for multipole
  | error in Hartree potential    :          -0.00256078 Ha          -0.06968225 eV
  | Sum of eigenvalues per atom                           :     -104562.44595856 eV
  | Total energy (T->0) per atom                          :     -170790.06548544 eV  <-- do not rely on this value for anything but (periodic) metals
  | Electronic free energy per atom                       :     -170790.06548544 eV
  What follows are estimated values for band gap, HOMO, LUMO, etc.
  | They are estimated on a discrete k-point grid and not necessarily exact.
  | For converged numbers, create a DOS and/or band structure plot on a denser k-grid.

  Highest occupied state (VBM) at     -5.29111206 eV (relative to internal zero)
  | Occupation number:      2.00000000
  | K-point:       1 at    0.000000    0.000000    0.000000 (in units of recip. lattice)

  Lowest unoccupied state (CBM) at    -4.76164250 eV (relative to internal zero)
  | Occupation number:      0.00000000
  | K-point:       1 at    0.000000    0.000000    0.000000 (in units of recip. lattice)

  ESTIMATED overall HOMO-LUMO gap:      0.52946956 eV between HOMO at k-point 1 and LUMO at k-point 1
  | This appears to be a direct band gap.
  The gap value is above 0.2 eV. Unless you are using a very sparse k-point grid,
  this system is most likely an insulator or a semiconductor.

  | Chemical Potential                          :    -5.00587454 eV
  | Note that, for insulating systems, the printed 'chemical potential' value is not uniquely defined.
  | It can be anywhere in the energy gap, as long as it correctly separates occupied and unoccupied states.
  | In systems with a gap, the physically relevant chemical potential is the VBM or HOMO.

  Self-consistency cycle converged.

  +-------------------------------------------------------------------+
  |              Analytical stress tensor - Symmetrized               |
  |                  Cartesian components [eV/A**3]                   |
  +-------------------------------------------------------------------+
  |                x                y                z                |
  |                                                                   |
  |  x         0.01093114       0.00000011       0.00000001           |
  |  y         0.00000011       0.01093162      -0.00000001           |
  |  z         0.00000001      -0.00000001       0.01093162           |
  |                                                                   |
  |  Pressure:      -0.01093146   [eV/A**3]                           |
  |                                                                   |
  +-------------------------------------------------------------------+
  Removing unitary transformations (pure translations, rotations) from forces on atoms.
  Atomic forces before filtering:
  | Net force on center of mass :   0.129062E-05 -0.399061E-06  0.398379E-05 eV/A
  Atomic forces after filtering:
  | Net force on center of mass :   0.170141E-21 -0.850707E-22  0.000000E+00 eV/A

  Energy and forces in a compact form:
  | Total energy uncorrected      :         -0.341580130970886E+06 eV
  | Total energy corrected        :         -0.341580130970886E+06 eV  <-- do not rely on this value for anything but (periodic) metals
  | Electronic free energy        :         -0.341580130970886E+06 eV
  Total atomic forces (unitary forces cleaned) [eV/Ang]:
  |    1         -0.371181035663054E-06         -0.122912146484122E-06         -0.834058839956765E-05
  |    2          0.371181035663054E-06          0.122912146484122E-06          0.834058839956765E-05

  Relaxation / MD: End force evaluation.       :  max(cpu_time)    wall_clock(cpu1)
  | Time for this force evaluation              :       34.113 s          34.119 s

------------------------------------------------------------
  Geometry optimization: Attempting to predict improved coordinates.

  +-------------------------------------------------------------------+
  | Generalized derivatives on lattice vectors [eV/A]                 |
  +-------------------------------------------------------------------+
  |lattice_vector      -0.11843366       0.11843888       0.11843998  |
  |lattice_vector       0.11843387      -0.11843914       0.11844048  |
  |lattice_vector       0.11843606       0.11844157      -0.11844023  |
  +-------------------------------------------------------------------+
  | Forces on lattice vectors cleaned from atomic contributions [eV/A]|
  +-------------------------------------------------------------------+
  |lattice_vector       0.11843366      -0.11843888      -0.11843998  |
  |lattice_vector      -0.11843387       0.11843914      -0.11844048  |
  |lattice_vector      -0.11843606      -0.11844157       0.11844023  |
  +-------------------------------------------------------------------+
  Removing unitary transformations (pure translations, rotations) from forces on atoms.
  Atomic forces before filtering:
  | Net force on center of mass :   0.170141E-21 -0.850707E-22  0.000000E+00 eV/A
  Atomic forces after filtering:
  | Net force on center of mass :   0.000000E+00  0.000000E+00  0.000000E+00 eV/A
  Net remaining forces (excluding translations, rotations) in present geometry:
  || Forces on atoms   || =   0.834059E-05 eV/A.
  || Forces on lattice || =   0.118442E+00 eV/A^3.
  Maximum force component is  0.118442E+00 eV/A.
  Present geometry is not yet converged.

  Relaxation step number      2: Predicting new coordinates.

  Advancing geometry using trust radius method.
  | True / expected gain: -6.26E-03 eV / -3.79E-03 eV =    1.6541
  | Harmonic / expected gain: -7.04E-03 eV / -3.79E-03 eV =    1.8587
  | Hessian has  0 negative and  3 zero eigenvalues.
  | Positive eigenvalues (eV/A^2): 1.97E+00 ... 3.02E+01
  | Use Quasi-Newton step of length |H^-1 F| = 1.36E-01 A.
  Finished advancing geometry
  | Time :      0.002 s
  Updated atomic structure:
                         x [A]             y [A]             z [A]
  lattice_vector        -0.00000311        3.23600617        3.23600591
  lattice_vector         3.23601029        0.00000112        3.23600854
  lattice_vector         3.23600927        3.23600777        0.00000087

            atom        -0.00000091       -0.00000027       -0.00001961  Cd
            atom         4.85401324        4.85401156        4.85403110  Te

  Fractional coordinates:
                         L1                L2                L3
       atom_frac        -0.00000293       -0.00000313        0.00000285  Cd
       atom_frac         0.75000293        0.75000313        0.74999715  Te
------------------------------------------------------------
  Writing the current geometry to file "geometry.in.next_step".
  Writing estimated Hessian matrix to file 'hessian.aims'

  Quantities derived from the lattice vectors (in Angstrom^-1):
  | Reciprocal lattice vector 1: -0.970823  0.970824  0.970824
  | Reciprocal lattice vector 2:  0.970822 -0.970823  0.970824
[...]
  | K-points in task   0:        13
  | K-points in task   1:        13
  | K-points in task   2:        13
  | K-points in task   3:        13
  | K-points in task   4:        13
  | K-points in task   5:        13
  | K-points in task   6:        13
  | K-points in task   7:        13
  | K-points in task   8:        13
  | K-points in task   9:        13
  | K-points in task  10:        13
  | K-points in task  11:        13
  | K-points in task  12:        13
  | K-points in task  13:        13
  | K-points in task  14:        13
  | K-points in task  15:        13
  | K-points in task  16:        13
  | K-points in task  17:        13
  | K-points in task  18:        13
  | K-points in task  19:        13
  | Number of basis functions in the Hamiltonian integrals :      2973
  | Number of basis functions in a single unit cell        :       104
  | Number of centers in hartree potential         :       708
  | Number of centers in hartree multipole         :       318
  | Number of centers in electron density summation:       198
  | Number of centers in basis integrals           :       228
  | Number of centers in integrals                 :       101
  | Number of centers in hamiltonian               :       198
  | Consuming        455 KiB for k_phase.
  | Number of super-cells (origin) [n_cells]                     :        2197
  | Number of super-cells (after PM_index) [n_cells]             :         112
  | Number of super-cells in hamiltonian [n_cells_in_hamiltonian]:         112
  | Size of matrix packed + index [n_hamiltonian_matrix_size] :      248291
  Partitioning the integration grid into batches with parallel hashing+maxmin method.
  Initializing partition tables, free-atom densities, potentials, etc. across the integration grid (initialize_grid_storage).
  | Species        1: outer_partition_radius set to              6.022673730162642 AA .
  | Species        2: outer_partition_radius set to              6.056084577048819 AA .
  | Net number of integration points:    58516
  | of which are non-zero points    :    50944
  Renormalizing the initial density to the exact electron count on the 3D integration grid.
  | Initial density: Formal number of electrons (from input files) :     100.0000000000
  | Integrated number of electrons on 3D grid     :     100.0008786284
  | Charge integration error                      :       0.0008786284
  | Normalization factor for density and gradient :       0.9999912138
  Renormalizing the free-atom superposition density to the exact electron count on the 3D integration grid.
  | Formal number of electrons (from input files) :     100.0000000000
  | Integrated number of electrons on 3D grid     :     100.0008786284
  | Charge integration error                      :       0.0008786284
  | Normalization factor for density and gradient :       0.9999912138
  Calculating total energy contributions from superposition of free atom densities.
  Initialize hartree_potential_storage
  Max. number of atoms included in rho_multipole:            2
  Integrating overlap matrix.
  Time summed over all CPUs for integration: real work        5.158 s, elapsed        5.350 s
  Orthonormalizing eigenvectors

  End scf reinitialization - timings           :  max(cpu_time)    wall_clock(cpu1)
  | Time for scf. reinitialization              :        0.526 s           0.526 s
  | Boundary condition initialization           :        0.050 s           0.049 s
  | Integration                                 :        0.269 s           0.269 s
  | Grid partitioning                           :        0.087 s           0.087 s
  | Preloading free-atom quantities on grid     :        0.065 s           0.065 s
  | Free-atom superposition energy              :        0.010 s           0.011 s
  | K.-S. eigenvector reorthonormalization      :        0.010 s           0.010 s
------------------------------------------------------------
  Time for density update prior                :  max(cpu_time)    wall_clock(cpu1)
  | self-consistency iterative process          :        0.598 s           0.598 s
------------------------------------------------------------
Convergence:    q app. |  density  | eigen (eV) | Etot (eV) | forces (eV/A) |       CPU time |     Clock time
  SCF    1 : -0.43E-13 |  0.59E-01 |  -0.21E+06 | -0.34E+06 |             . |        1.258 s |        1.258 s
  SCF    2 : -0.33E-13 |  0.10E-02 |   0.53E+00 |  0.15E-04 |             . |        1.304 s |        1.305 s
  SCF    3 : -0.77E-13 |  0.59E-03 |   0.54E+00 |  0.10E-04 |             . |        1.305 s |        1.304 s
  SCF    4 : -0.64E-13 |  0.50E-03 |   0.18E-01 |  0.43E-05 |             . |        1.302 s |        1.302 s
  SCF    5 : -0.10E-12 |  0.41E-03 |  -0.70E-01 | -0.83E-05 |             . |        1.315 s |        1.315 s
  SCF    6 : -0.36E-13 |  0.53E-04 |   0.17E-01 | -0.70E-06 |             . |        1.303 s |        1.302 s
  SCF    7 : -0.68E-13 |  0.14E-04 |   0.22E-01 |  0.17E-06 |             . |        1.305 s |        1.305 s
  SCF    8 :  0.26E-13 |  0.14E-04 |  -0.13E-01 |  0.52E-07 |             . |        1.304 s |        1.305 s
  SCF    9 : -0.59E-13 |  0.11E-05 |   0.23E-03 |  0.19E-07 |             . |        1.304 s |        1.303 s
  SCF   10 : -0.73E-13 |  0.72E-07 |  -0.72E-04 | -0.12E-08 |             . |        1.302 s |        1.303 s
  SCF   11 : -0.66E-13 |  0.98E-08 |   0.93E-05 |  0.11E-08 |      0.36E-02 |        3.033 s |        3.033 s
  SCF   12 : -0.96E-13 |  0.80E-08 |  -0.37E-05 | -0.84E-09 |      0.85E-05 |       20.180 s |       20.180 s

  Total energy components:
  | Sum of eigenvalues            :       -7685.30636441 Ha     -209127.82648223 eV
  | XC energy correction          :        -326.52920493 Ha       -8885.31174581 eV
  | XC potential correction       :         429.23946619 Ha       11680.20015696 eV
  | Free-atom electrostatic energy:       -4971.42885833 Ha     -135279.46217836 eV
  | Hartree energy correction     :           1.18535916 Ha          32.25526374 eV
  | Entropy correction            :          -0.00000000 Ha          -0.00000000 eV
  | ---------------------------
  | Total energy                  :      -12552.83960233 Ha     -341580.14498570 eV
  | Total energy, T -> 0          :      -12552.83960233 Ha     -341580.14498570 eV  <-- do not rely on this value for anything but (periodic) metals
  | Electronic free energy        :      -12552.83960233 Ha     -341580.14498570 eV

  Derived energy quantities:
  | Kinetic energy                :       13121.79247460 Ha      357062.14035547 eV
  | Electrostatic energy          :      -25348.10287199 Ha     -689756.97359535 eV
  | Energy correction for multipole
  | error in Hartree potential    :          -0.00297600 Ha          -0.08098102 eV
  | Sum of eigenvalues per atom                           :     -104563.91324112 eV
  | Total energy (T->0) per atom                          :     -170790.07249285 eV  <-- do not rely on this value for anything but (periodic) metals
  | Electronic free energy per atom                       :     -170790.07249285 eV
  What follows are estimated values for band gap, HOMO, LUMO, etc.
  | They are estimated on a discrete k-point grid and not necessarily exact.
  | For converged numbers, create a DOS and/or band structure plot on a denser k-grid.

  Highest occupied state (VBM) at     -5.22347601 eV (relative to internal zero)
  | Occupation number:      2.00000000
  | K-point:       1 at    0.000000    0.000000    0.000000 (in units of recip. lattice)

  Lowest unoccupied state (CBM) at    -4.56038847 eV (relative to internal zero)
  | Occupation number:      0.00000000
  | K-point:       1 at    0.000000    0.000000    0.000000 (in units of recip. lattice)

  ESTIMATED overall HOMO-LUMO gap:      0.66308754 eV between HOMO at k-point 1 and LUMO at k-point 1
  | This appears to be a direct band gap.
  The gap value is above 0.2 eV. Unless you are using a very sparse k-point grid,
  this system is most likely an insulator or a semiconductor.

  | Chemical Potential                          :    -4.76531031 eV
  | Note that, for insulating systems, the printed 'chemical potential' value is not uniquely defined.
  | It can be anywhere in the energy gap, as long as it correctly separates occupied and unoccupied states.
  | In systems with a gap, the physically relevant chemical potential is the VBM or HOMO.

  Self-consistency cycle converged.

  +-------------------------------------------------------------------+
  |              Analytical stress tensor - Symmetrized               |
  |                  Cartesian components [eV/A**3]                   |
  +-------------------------------------------------------------------+
  |                x                y                z                |
  |                                                                   |
  |  x         0.00012833       0.00000712       0.00000002           |
  |  y         0.00000712       0.00012853       0.00000035           |
  |  z         0.00000002       0.00000035       0.00012849           |
  |                                                                   |
  |  Pressure:      -0.00012845   [eV/A**3]                           |
  |                                                                   |
  +-------------------------------------------------------------------+
  Removing unitary transformations (pure translations, rotations) from forces on atoms.
  Atomic forces before filtering:
  | Net force on center of mass :  -0.640440E-06  0.571721E-06  0.837365E-06 eV/A
  Atomic forces after filtering:
  | Net force on center of mass :   0.000000E+00  0.340283E-21 -0.435562E-19 eV/A

  Energy and forces in a compact form:
  | Total energy uncorrected      :         -0.341580144985702E+06 eV
  | Total energy corrected        :         -0.341580144985702E+06 eV  <-- do not rely on this value for anything but (periodic) metals
  | Electronic free energy        :         -0.341580144985702E+06 eV
  Total atomic forces (unitary forces cleaned) [eV/Ang]:
  |    1         -0.198788667691595E-04         -0.156585713901241E-05         -0.356403641169232E-03
  |    2          0.198788667691595E-04          0.156585713901241E-05          0.356403641169232E-03

  Relaxation / MD: End force evaluation.       :  max(cpu_time)    wall_clock(cpu1)
  | Time for this force evaluation              :       37.340 s          37.344 s

------------------------------------------------------------
  Geometry optimization: Attempting to predict improved coordinates.

  +-------------------------------------------------------------------+
  | Generalized derivatives on lattice vectors [eV/A]                 |
  +-------------------------------------------------------------------+
  |lattice_vector      -0.00127403       0.00128004       0.00135419  |
  |lattice_vector       0.00127447      -0.00127274       0.00134733  |
  |lattice_vector       0.00142369       0.00142240      -0.00134689  |
  +-------------------------------------------------------------------+
  | Forces on lattice vectors cleaned from atomic contributions [eV/A]|
  +-------------------------------------------------------------------+
  |lattice_vector       0.00127403      -0.00128004      -0.00135419  |
  |lattice_vector      -0.00127447       0.00127274      -0.00134733  |
  |lattice_vector      -0.00142369      -0.00142240       0.00134689  |
  +-------------------------------------------------------------------+
  Removing unitary transformations (pure translations, rotations) from forces on atoms.
  Atomic forces before filtering:
  | Net force on center of mass :   0.000000E+00  0.340283E-21 -0.435562E-19 eV/A
  Atomic forces after filtering:
  | Net force on center of mass :   0.000000E+00 -0.340283E-21  0.435562E-19 eV/A
  Net remaining forces (excluding translations, rotations) in present geometry:
  || Forces on atoms   || =   0.356404E-03 eV/A.
  || Forces on lattice || =   0.142369E-02 eV/A^3.
  Maximum force component is  0.142369E-02 eV/A.
  Present geometry is converged.

------------------------------------------------------------
  Final atomic structure:
                         x [A]             y [A]             z [A]
  lattice_vector        -0.00000170        3.24229352        3.24229440
  lattice_vector         3.24229724        0.00000227        3.24229662
  lattice_vector         3.24230079        3.24229928        0.00000317

            atom         0.00000252        0.00000009        0.00003858  Cd
            atom         4.86344473        4.86344622        4.86340707  Te

  Fractional coordinates:
                         L1                L2                L3
       atom_frac         0.00000557        0.00000632       -0.00000555  Cd
       atom_frac         0.74999443        0.74999368        0.75000555  Te
------------------------------------------------------------

------------------------------------------------------------------------------
  Final output of selected total energy values:

  The following output summarizes some interesting total energy values
  at the end of a run (AFTER all relaxation, molecular dynamics, etc.).

  | Total energy of the DFT / Hartree-Fock s.c.f. calculation      :        -341580.144985702 eV
  | Final zero-broadening corrected energy (caution - metals only) :        -341580.144985702 eV
  | For reference only, the value of 1 Hartree used in FHI-aims is :             27.211384500 eV
  | For reference only, the overall average (free atom contribution
  | + realspace contribution) of the electrostatic potential after
  | s.c.f. convergence is                                          :            -13.936081489 eV

  Before relying on these values, please be sure to understand exactly which
  total energy value is referred to by a given number. Different objects may
  all carry the same name 'total energy'. Definitions:

  Total energy of the DFT / Hartree-Fock s.c.f. calculation:
  | Note that this energy does not include ANY quantities calculated after the
  | s.c.f. cycle, in particular not ANY RPA, MP2, etc. many-body perturbation terms.

  Final zero-broadening corrected energy:
  | For metallic systems only, a broadening of the occupation numbers at the Fermi
  | level can be extrapolated back to zero broadening by an electron-gas inspired
  | formula. For all systems that are not real metals, this value can be
  | meaningless and should be avoided.

------------------------------------------------------------------------------
  Methods described in the following list of references were used in this FHI-aims run.
  If you publish the results, please make sure to cite these reference if they apply.
  FHI-aims is an academic code, and for our developers (often, Ph.D. students
  and postdocs), scientific credit in the community is essential.
  Thank you for helping us!

  For any use of FHI-aims, please cite:

    Volker Blum, Ralf Gehrke, Felix Hanke, Paula Havu, Ville Havu,
    Xinguo Ren, Karsten Reuter, and Matthias Scheffler
    'Ab initio molecular simulations with numeric atom-centered orbitals'
    Computer Physics Communications 180, 2175-2196 (2009)
    http://doi.org/10.1016/j.cpc.2009.06.022


  For the analytical stress tensor used in your run, please cite:

    Franz Knuth, Christian Carbogno, Viktor Atalla, Volker Blum, Matthias Scheffler
    'All-electron formalism for total energy strain derivatives and
    stress tensor components for numeric atom-centered orbitals'
    Computer Physics Communications 190, 33-50 (2015).
    http://doi.org/10.1016/j.cpc.2015.01.003


  The provided symmetry information was generated with SPGlib:

    Atsushi Togo, Yusuke Seto, Dimitar Pashov
    SPGlib 1.7.3 obtained from http://spglib.sourceforge.net
    Copyright (C) 2008 Atsushi Togo


  The ELSI infrastructure was used in your run to solve the Kohn-Sham electronic structure.
  Please check out http://elsi-interchange.org to learn more.
  If scalability is important for your project, please acknowledge ELSI by citing:

    V. W-z. Yu, F. Corsetti, A. Garcia, W. P. Huhn, M. Jacquelin, W. Jia,
    B. Lange, L. Lin, J. Lu, W. Mi, A. Seifitokaldani, A. Vazquez-Mayagoitia,
    C. Yang, H. Yang, and V. Blum
    'ELSI: A unified software interface for Kohn-Sham electronic structure solvers'
    Computer Physics Communications 222, 267-285 (2018).
    http://doi.org/10.1016/j.cpc.2017.09.007


  For the real-space grid partitioning and parallelization used in this calculation, please cite:

    Ville Havu, Volker Blum, Paula Havu, and Matthias Scheffler,
    'Efficient O(N) integration for all-electron electronic structure calculation'
    'using numerically tabulated basis functions'
    Journal of Computational Physics 228, 8367-8379 (2009).
    http://doi.org/10.1016/j.jcp.2009.08.008

  Of course, there are many other important community references, e.g., those cited in the
  above references. Our list is limited to references that describe implementations in the
  FHI-aims code. The reason is purely practical (length of this list) - please credit others as well.

------------------------------------------------------------
          Leaving FHI-aims.
          Date     :  20230627, Time     :  151349.009

          Computational steps:
          | Number of self-consistency cycles          :           51
          | Number of SCF (re)initializations          :            4
          | Number of relaxation steps                 :            3

          Detailed time accounting                     :  max(cpu_time)    wall_clock(cpu1)
          | Total time                                  :      146.903 s         146.910 s
          | Preparation time                            :        0.379 s           0.378 s
          | Boundary condition initalization            :        0.210 s           0.196 s
          | Grid partitioning                           :        0.352 s           0.352 s
          | Preloading free-atom quantities on grid     :        0.253 s           0.252 s
          | Free-atom superposition energy              :        0.040 s           0.040 s
          | Total time for integrations                 :       18.880 s          18.882 s
          | Total time for solution of K.-S. equations  :        2.464 s           2.463 s
          | Total time for EV reorthonormalization      :        0.031 s           0.030 s
          | Total time for density & force components   :       95.254 s          95.252 s
          | Total time for mixing & preconditioning     :        2.223 s           2.226 s
          | Total time for Hartree multipole update     :        0.075 s           0.075 s
          | Total time for Hartree multipole sum        :       19.813 s          19.812 s
          | Total time for total energy evaluation      :        0.022 s           0.021 s
          | Total time NSC force correction             :        6.683 s           6.685 s
          | Total time for scaled ZORA corrections      :        0.000 s           0.000 s

          Partial memory accounting:
          | Residual value for overall tracked memory usage across tasks:     0.000000 MB (should be 0.000000 MB)
          | Peak values for overall tracked memory usage:
          |   Minimum:       33.705 MB (on task 15 after allocating d_wave)
          |   Maximum:       34.751 MB (on task 11 after allocating d_wave)
          |   Average:       34.187 MB
          | Largest tracked array allocation:
          |   Minimum:        6.857 MB (hamiltonian_shell on task 17)
          |   Maximum:        7.282 MB (density_matrix_con on task 11)
          |   Average:        7.118 MB
          Note:  These values currently only include a subset of arrays which are explicitly tracked.
          The "true" memory usage will be greater.

          Have a nice day.
------------------------------------------------------------
