------------------------------------------------------------
          Invoking FHI-aims ...

          When using FHI-aims, please cite the following reference:

            Volker Blum, Ralf Gehrke, Felix Hanke, Paula Havu,
            Ville Havu, Xinguo Ren, Karsten Reuter, and Matthias Scheffler,
            'Ab Initio Molecular Simulations with Numeric Atom-Centered Orbitals',
            Computer Physics Communications 180, 2175-2196 (2009)

          In addition, many other developments in FHI-aims are likely important for
          your particular application. A partial list of references is given at the end of
          this file. Thank you for giving credit to the authors of these developments.

          For any questions about FHI-aims, please visit our slack channel at

            https://fhi-aims.slack.com

          and our main development and support site at

            https://aims-git.rz-berlin.mpg.de .

          The latter site, in particular, has a wiki to collect information, as well
          as an issue tracker to log discussions, suggest improvements, and report issues
          or bugs. https://aims-git.rz-berlin.mpg.de is also the main development site
          of the project and all new and updated code versions can be obtained there.
          Please send an email to aims-coordinators@fhi-berlin.mpg.de and we will add
          you to these sites. They are for you and everyone is welcome there.

------------------------------------------------------------



  Date     :  20230702, Time     :  135841.259
  Time zero on CPU 1             :   0.131429600000000E+01  s.
  Internal wall clock time zero  :           457538321.259  s.

  FHI-aims created a unique identifier for this run for later identification
  aims_uuid : B2ABAB9C-D042-4D4B-A0D6-7E84E453B5D1

  Build configuration of the current instance of FHI-aims
  -------------------------------------------------------
  FHI-aims version      : 220619
  Commit number         : ad4f367e7
  CMake host system     : Linux-5.4.0-122-generic
  CMake version         : 3.16.3
  Fortran compiler      : /opt/intel/oneapi/mpi/2021.5.1/bin/mpiifort (Intel) version 20.2.5.20211109
  Fortran compiler flags: -O3 -ip -fp-model precise
  C compiler            : /opt/intel/oneapi/compiler/2022.0.2/linux/bin/intel64/icc (Intel) version 20.2.5.20211109
  C compiler flags      : -O3 -ip -fp-model precise -std=gnu99
  ELPA2 kernel          : AVX2
  Using MPI
  Using ScaLAPACK
  Using LibXC
  Using i-PI
  Using RLSY
  Linking against: /opt/intel/oneapi/mkl/2022.1.0/lib/intel64/libmkl_intel_lp64.so
                   /opt/intel/oneapi/mkl/2022.1.0/lib/intel64/libmkl_sequential.so
                   /opt/intel/oneapi/mkl/2022.1.0/lib/intel64/libmkl_core.so
                   /opt/intel/oneapi/mkl/2022.1.0/lib/intel64/libmkl_blacs_intelmpi_lp64.so
                   /opt/intel/oneapi/mkl/2022.1.0/lib/intel64/libmkl_scalapack_lp64.so

  Using        4 parallel tasks.
  Task        0 on host c21000127-lnx reporting.
  Task        1 on host c21000127-lnx reporting.
  Task        2 on host c21000127-lnx reporting.
  Task        3 on host c21000127-lnx reporting.

  Performing system and environment tests:
  *** Environment variable OMP_NUM_THREADS is not set
  *** For performance reasons you might want to set it to 1
  | Checking for ScaLAPACK...
  | Testing pdtran()...
  | All pdtran() tests passed.

  Obtaining array dimensions for all initial allocations:
  
  -----------------------------------------------------------------------
  Parsing control.in (first pass over file, find array dimensions only).
  The contents of control.in will be repeated verbatim below
  unless switched off by setting 'verbatim_writeout .false.' .
  in the first line of control.in .
  -----------------------------------------------------------------------
  
  #===============================================================================
  # FHI-aims file: ./control.in
  # Created using the Atomic Simulation Environment (ASE)
  # Sun Jul  2 13:58:39 2023
  #===============================================================================
  xc                                 pw-lda
  k_grid                             4 4 4
  sc_accuracy_rho                    1e-06
  relativistic                       atomic_zora scalar
  output_level                       MD_light
  compute_forces                     .true.
  #===============================================================================
  
  ################################################################################
  #
  #  FHI-aims code project
  #  VB, Fritz-Haber Institut, 2009
  #
  #  Suggested "light" defaults for Cd atom (to be pasted into control.in file)
  #  Be sure to double-check any results obtained with these settings for post-processing,
  #  e.g., with the "tight" defaults and larger basis sets.
  #
  ################################################################################
    species        Cd
  #     global species definitions
      nucleus             48
      mass                112.411
  #
      l_hartree           4
  #
      cut_pot             3.5  1.5  1.0
      basis_dep_cutoff    1e-4
  #
      radial_base         62 5.0
      radial_multiplier   1
      angular_grids specified
        division   0.5937   50
        division   1.0282  110
        division   1.3769  194
        division   1.7301  302
  #      division   2.2341  434
  #      division   2.2741  590
  #      division   2.3152  770
  #      division   2.3574  974
  #      division   2.9077 1202
  #      outer_grid  974
        outer_grid  302
  ################################################################################
  #
  #  Definition of "minimal" basis
  #
  ################################################################################
  #     valence basis states
      valence      5  s   2.
      valence      4  p   6.
      valence      4  d  10.
  #     ion occupancy
      ion_occ     5  s   1.
      ion_occ     4  p   6.
      ion_occ     4  d   9.
  ################################################################################
  #
  #  Suggested additional basis functions. For production calculations,
  #  uncomment them one after another (the most important basis functions are
  #  listed first).
  #
  #  Constructed for dimers: 2.15 A, 2.50 A, 3.10 A, 4.00 A, 5.00 A
  #
  ################################################################################
  #  "First tier" - max. impr. -224.92  meV, min. impr. -5.81 meV
       hydro 2 p 1.6
       hydro 4 f 7
       hydro 3 s 2.8
       hydro 3 p 5.2
  #     hydro 5 g 10.0
       hydro 3 d 3.8
  #  "Second tier" - max. impr. -2.57  meV, min. impr. -0.38 meV
  #     hydro 4 f 17.6
  #     hydro 6 h 13.6
  #     hydro 3 p 7
  #     hydro 5 s 17.6
  #     hydro 3 d 3.4
  #  "Third tier" - max. impr. -0.37 meV, min. impr. -0.09 meV
  #     hydro 3 p 2.4
  #     hydro 4 f 6.4
  #     hydro 4 s 4
  #     hydro 5 f 15.6
  #     hydro 5 g 10.8
  #     hydro 2 p 6.4
  #     hydro 6 h 12.8
  #     hydro 5 d 9.0
  #  Further functions: -0.05 meV and below
  #     hydro 5 d 5.8
  ################################################################################
  #
  #  FHI-aims code project
  #  VB, Fritz-Haber Institut, 2009
  #
  #  Suggested "light" defaults for Te atom (to be pasted into control.in file)
  #  Be sure to double-check any results obtained with these settings for post-processing,
  #  e.g., with the "tight" defaults and larger basis sets.
  #
  #  2020/09/22 Added f function to light settings to improve bulk properties of In-I.
  #
  ################################################################################
    species        Te
  #     global species definitions
      nucleus             52
      mass                127.60
  #
      l_hartree           4
  #
      cut_pot             3.5  1.5  1.0
      basis_dep_cutoff    1e-4
  #
      radial_base         64 5.0
      radial_multiplier   1
      angular_grids specified
        division   0.1259  110
        division   0.8959  194
        division   0.9864  302
  #      division   1.1196  434
  #      division   1.1922  590
  #      division   1.3098  770
  #      division   2.9404  974
  #      outer_grid  974
        outer_grid  302
  ################################################################################
  #
  #  Definition of "minimal" basis
  #
  ################################################################################
  #     valence basis states
      valence      5  s   2.
      valence      5  p   4.
      valence      4  d  10.
  #     ion occupancy
      ion_occ     5  s   1.
      ion_occ     5  p   3.
      ion_occ     4  d  10.
  ################################################################################
  #
  #  Suggested additional basis functions. For production calculations,
  #  uncomment them one after another (the most important basis functions are
  #  listed first).
  #
  #  Constructed for dimers: 2.15 A, 2.55 A, 3.10 A, 3.60 A, 4.50 A
  #
  ################################################################################
  #  "First tier" - max. impr. -217.34  meV, min. impr. -22.97 meV
       hydro 3 d 3.7
       hydro 4 f 6
       hydro 3 p 2.7
       ionic 5 s auto
  #  "Second tier" - max. impr. -17.80 meV, min. impr. -0.57 meV
  #     hydro 5 g 9
  #     hydro 4 f 16.4
  #     hydro 6 h 12
  #     hydro 4 p 6.4
  #     hydro 5 f 32.4
  #     hydro 4 d 5
  #     hydro 3 s 2.8
  #  "Third tier" - max. impr. -0.51 meV, min. impr. -0.06 meV
  #     hydro 5 f 8.4
  #     hydro 5 g 11.6
  #     hydro 6 h 15.6
  #     hydro 2 p 1.7
  #     hydro 4 d 9.6
  #     hydro 1 s 6.4
  #  Further functions that fell out of the optimization: -0.17 meV and below
  #     hydro 4 f 33.6
  #     hydro 5 d 6.8
  #     hydro 5 f 16
  
  -----------------------------------------------------------------------
  Completed first pass over input file control.in .
  -----------------------------------------------------------------------
  
  
  -----------------------------------------------------------------------
  Parsing geometry.in (first pass over file, find array dimensions only).
  The contents of geometry.in will be repeated verbatim below
  unless switched off by setting 'verbatim_writeout .false.' .
  in the first line of geometry.in .
  -----------------------------------------------------------------------
  
  #=======================================================
  # FHI-aims file: ./geometry.in
  # Created using the Atomic Simulation Environment (ASE)
  # Sun Jul  2 13:58:39 2023
  #=======================================================
  lattice_vector -0.0000034000000000 6.4845870400000001 6.4845888000000000
  lattice_vector 6.4845944800000002 0.0000045400000000 6.4845932399999997
  lattice_vector 6.4846015799999996 6.4845985600000002 0.0000063400000000
  atom_frac 0.0000027849999999 0.0000031600000002 0.9999972249999999 Cd
  atom_frac 0.5000027849999999 0.0000031600000000 0.9999972250000000 Cd
  atom_frac 0.0000027850000001 0.5000031600000000 0.9999972249999998 Cd
  atom_frac 0.5000027849999996 0.5000031600000003 0.9999972249999995 Cd
  atom_frac 0.0000027850000000 0.0000031600000000 0.4999972249999999 Cd
  atom_frac 0.5000027849999998 0.0000031600000001 0.4999972249999999 Cd
  atom_frac 0.0000027850000000 0.5000031600000001 0.4999972249999997 Cd
  atom_frac 0.5000027849999998 0.5000031600000000 0.4999972249999999 Cd
  atom_frac 0.3739067728779870 0.3749968399999999 0.3750027750000000 Te
  atom_frac 0.8749972149999999 0.3749968400000002 0.3750027749999997 Te
  atom_frac 0.3749972150000002 0.8749968400000004 0.3750027749999995 Te
  atom_frac 0.8749972150000002 0.8749968400000003 0.3750027749999991 Te
  atom_frac 0.3749972150000003 0.3749968399999999 0.8750027749999999 Te
  atom_frac 0.8749972149999999 0.3749968400000002 0.8750027749999997 Te
  atom_frac 0.3749972150000000 0.8749968400000003 0.8750027749999993 Te
  atom_frac 0.8749972149999998 0.8749968400000003 0.8750027749999995 Te
  
  -----------------------------------------------------------------------
  Completed first pass over input file geometry.in .
  -----------------------------------------------------------------------
  

  Basic array size parameters:
  | Number of species                 :        2
  | Number of atoms                   :       16
  | Number of lattice vectors         :        3
  | Max. basis fn. angular momentum   :        3
  | Max. atomic/ionic basis occupied n:        5
  | Max. number of basis fn. types    :        3
  | Max. radial fns per species/type  :       11
  | Max. logarithmic grid size        :     1454
  | Max. radial integration grid size :       64
  | Max. angular integration grid size:      302
  | Max. angular grid division number :        8
  | Radial grid for Hartree potential :     1454
  | Number of spin channels           :        1

------------------------------------------------------------
          Reading file control.in.
------------------------------------------------------------
  XC: Using Perdew-Wang parametrisation of Ceperley-Alder LDA.
  Found k-point grid:         4         4         4
  Convergence accuracy of self-consistent charge density:  0.1000E-05
  Scalar relativistic treatment of kinetic energy: on-site free-atom approximation to ZORA.
  Requested output level: MD_light
  Forces will be computed.
 
  Reading configuration options for species Cd                  .
  | Found nuclear charge :  48.0000
  | Found atomic mass :    112.411000000000      amu
  | Found l_max for Hartree potential  :   4
  | Found cutoff potl. onset [A], width [A], scale factor :    3.50000    1.50000    1.00000
  | Threshold for basis-dependent cutoff potential is   0.100000E-03
  | Found data for basic radial integration grid :    62 points, outermost radius =    5.000 A
  | Found multiplier for basic radial grid :   1
  | Found angular grid specification: user-specified.
  | Specified grid contains     5 separate shells.
  | Check grid settings after all constraints further below.
  | Found free-atom valence shell :  5 s   2.000
  | Found free-atom valence shell :  4 p   6.000
  | Found free-atom valence shell :  4 d  10.000
  | Found free-ion valence shell :  5 s   1.000
  | Found free-ion valence shell :  4 p   6.000
  | Found free-ion valence shell :  4 d   9.000
  | Found hydrogenic basis function :  2 p   1.600
  | Found hydrogenic basis function :  4 f   7.000
  | Found hydrogenic basis function :  3 s   2.800
  | Found hydrogenic basis function :  3 p   5.200
  | Found hydrogenic basis function :  3 d   3.800
  Species Cd                  : Missing cutoff potential type.
  Defaulting to exp(1/x)/(1-x)^2 type cutoff potential.
  Species Cd: No 'logarithmic' tag. Using default grid for free atom:
  | Default logarithmic grid data [bohr] : 0.1000E-03 0.1000E+03 0.1012E+01
  Species Cd: On-site basis accuracy parameter (for Gram-Schmidt orthonormalisation) not specified.
  Using default value basis_acc =  0.1000000E-03.
  Species Cd                  : Using default innermost maximum threshold i_radial=  2 for radial functions.
  Species Cd                  : Default cutoff onset for free atom density etc. : 0.35000000E+01 AA.
  Species Cd                  : Basic radial grid will be enhanced according to radial_multiplier =   1, to contain    62 grid points.
 
  Reading configuration options for species Te                  .
  | Found nuclear charge :  52.0000
  | Found atomic mass :    127.600000000000      amu
  | Found l_max for Hartree potential  :   4
  | Found cutoff potl. onset [A], width [A], scale factor :    3.50000    1.50000    1.00000
  | Threshold for basis-dependent cutoff potential is   0.100000E-03
  | Found data for basic radial integration grid :    64 points, outermost radius =    5.000 A
  | Found multiplier for basic radial grid :   1
  | Found angular grid specification: user-specified.
  | Specified grid contains     4 separate shells.
  | Check grid settings after all constraints further below.
  | Found free-atom valence shell :  5 s   2.000
  | Found free-atom valence shell :  5 p   4.000
  | Found free-atom valence shell :  4 d  10.000
  | Found free-ion valence shell :  5 s   1.000
  | Found free-ion valence shell :  5 p   3.000
  | Found free-ion valence shell :  4 d  10.000
  | Found hydrogenic basis function :  3 d   3.700
  | Found hydrogenic basis function :  4 f   6.000
  | Found hydrogenic basis function :  3 p   2.700
  | Found ionic basis function :  5 s , default cutoff radius.
  Species Te                  : Missing cutoff potential type.
  Defaulting to exp(1/x)/(1-x)^2 type cutoff potential.
  Species Te: No 'logarithmic' tag. Using default grid for free atom:
  | Default logarithmic grid data [bohr] : 0.1000E-03 0.1000E+03 0.1012E+01
  | Will include ionic basis functions of  2.0-fold positive Te                   ion.
  Species Te: On-site basis accuracy parameter (for Gram-Schmidt orthonormalisation) not specified.
  Using default value basis_acc =  0.1000000E-03.
  Species Te                  : Using default innermost maximum threshold i_radial=  2 for radial functions.
  Species Te                  : Default cutoff onset for free atom density etc. : 0.35000000E+01 AA.
  Species Te                  : Basic radial grid will be enhanced according to radial_multiplier =   1, to contain    64 grid points.
 
  Finished reading input file 'control.in'.
 
------------------------------------------------------------


------------------------------------------------------------
          Reading geometry description geometry.in.
------------------------------------------------------------
  | The smallest distance between any two atoms is         2.79970856 AA.
  | The first atom of this pair is atom number                      7 .
  | The second atom of this pair is atom number                     9 .
  | Wigner-Seitz cell of the first atom image           0     1     0 .
  | (The Wigner-Seitz cell of the second atom is 0 0 0  by definition.)

  Symmetry information by spglib:
  | Precision set to  0.1E-04
  | Number of Operations  : 1
  | Space group           : 1
  | International         : P1
  | Schoenflies           : C1^1
  Input structure read successfully.
  The structure contains       16 atoms,  and a total of        800.000 electrons.

  Input geometry:
  | Unit cell:
  |       -0.00000340        6.48458704        6.48458880
  |        6.48459448        0.00000454        6.48459324
  |        6.48460158        6.48459856        0.00000634
  | Atomic structure:
  |       Atom                x [A]            y [A]            z [A]
  |    1: Species Cd            6.48460408        6.48459862        0.00004489
  |    2: Species Cd            6.48460238        9.72689214        3.24233929
  |    3: Species Cd            9.72690132        6.48460089        3.24234151
  |    4: Species Cd            9.72689962        9.72689441        6.48463591
  |    5: Species Cd            3.24230329        3.24229934        0.00004172
  |    6: Species Cd            3.24230159        6.48459286        3.24233612
  |    7: Species Cd            6.48460053        3.24230161        3.24233834
  |    8: Species Cd            6.48459883        6.48459513        6.48463274
  |    9: Species Te            4.86344475        4.85637517        4.85633602
  |   10: Species Te            4.86344305        8.10573976        8.10570149
  |   11: Species Te            8.10574199        4.86344851        8.10570371
  |   12: Species Te            8.10574029        8.10574203       11.34799811
  |   13: Species Te            8.10574554        8.10574552        4.86341026
  |   14: Species Te            8.10574384       11.34803904        8.10570466
  |   15: Species Te           11.34804278        8.10574779        8.10570688
  |   16: Species Te           11.34804108       11.34804131       11.34800128

  Lattice parameters for 3D lattice (in Angstroms) :     9.170592    9.170601    9.170609
  Angle(s) between unit vectors (in degrees)       :    59.999934   59.999997   59.999993


  Quantities derived from the lattice vectors (in Angstrom^-1):
  | Reciprocal lattice vector 1: -0.484471  0.484471  0.484471
  | Reciprocal lattice vector 2:  0.484470 -0.484471  0.484471
  | Reciprocal lattice vector 3:  0.484470  0.484470 -0.484470
  | Unit cell volume                               :   0.545354E+03  Angstrom^3

 
  Finished reading input file 'geometry.in'.
 

 
  Consistency checks for stacksize environment parameter are next.
 
  | Maximum stacksize for task 0: unlimited
  | Maximum stacksize for task 1: unlimited
  | Maximum stacksize for task 2: unlimited
  | Maximum stacksize for task 3: unlimited
  | Current stacksize for task 0: unlimited
  | Current stacksize for task 1: unlimited
  | Current stacksize for task 2: unlimited
  | Current stacksize for task 3: unlimited
 
  Consistency checks for the contents of control.in are next.
 
  MPI_IN_PLACE appears to work with this MPI implementation.
  | Keeping use_mpi_in_place .true. (see manual).
  Target number of points in a grid batch is not set. Defaulting to  100
  Method for grid partitioning is not set. Defaulting to parallel hash+maxmin partitioning.
  Batch size limit is not set. Defaulting to    200
  By default, will store active basis functions for each batch.
  If in need of memory, prune_basis_once .false. can be used to disable this option.
  communication_type for Hartree potential was not specified.
  Defaulting to calc_hartree .
  Defaulting to Pulay charge density mixer.
  Pulay mixer: Number of relevant iterations not set.
  Defaulting to    8 iterations.
  Pulay mixer: Number of initial linear mixing iterations not set.
  Defaulting to    0 iterations.
  Work space size for distributed Hartree potential not set.
  Defaulting to   0.200000E+03 MB.
  Mixing parameter for charge density mixing has not been set.
  Using default: charge_mix_param =     0.0500.
  The mixing parameter will be adjusted in iteration number     2 of the first full s.c.f. cycle only.
  Algorithm-dependent basis array size parameters:
  | n_max_pulay                         :        8
  Maximum number of self-consistency iterations not provided.
  Presetting  1000 iterations.
  Presetting      1001 iterations before the initial mixing cycle
  is restarted anyway using the sc_init_iter criterion / keyword.
  Presetting a factor      1.000 between actual scf density residual
  and density convergence criterion sc_accuracy_rho below which sc_init_iter
  takes no effect.
  Geometry relaxation not requested: no relaxation will be performed.
  Forces evaluation will include force correction term due to incomplete self-consistency (default).
  Force calculation: scf convergence accuracy of forces not set.
  Defaulting to 'sc_accuracy_forces not_checked'.
  Handling of forces: Unphysical translation and rotation will be removed from forces.
  No accuracy limit for integral partition fn. given. Defaulting to  0.1000E-14.
  No threshold value for u(r) in integrations given. Defaulting to  0.1000E-05.
  No occupation type (smearing scheme) given. Defaulting to Gaussian broadening, width =  0.1000E-01 eV.
  The width will be adjusted in iteration number     2 of the first full s.c.f. cycle only.
  S.C.F. convergence parameters will be adjusted in iteration number     2 of the first full s.c.f. cycle only.
  No accuracy for occupation numbers given. Defaulting to  0.1000E-12.
  No threshold value for occupation numbers given. Defaulting to  0.0000E+00.
  No accuracy for fermi level given. Defaulting to  0.1000E-19.
  Maximum # of iterations to find E_F not set. Defaulting to  200.
  Preferred method for the eigenvalue solver ('KS_method') not specified in 'control.in'.
  Defaulting to serial version, LAPACK (via ELSI), since more k-points than CPUs available.
  Will not use alltoall communication since running on < 1024 CPUs.
  Threshold for basis singularities not set.
  Default threshold for basis singularities:  0.1000E-04
  partition_type (choice of integration weights) for integrals was not specified.
  | Using a version of the partition function of Stratmann and coworkers ('stratmann_sparse').
  | At each grid point, the set of atoms used to build the partition table is smoothly restricted to
  | only those atoms whose free-atom density would be non-zero at that grid point.
  Partitioning for Hartree potential was not defined. Using partition_type for integrals.
  | Adjusted default value of keyword multip_moments_threshold to:       0.10000000E-11
  | This value may affect high angular momentum components of the Hartree potential in periodic systems.
  Spin handling was not defined in control.in. Defaulting to unpolarized case.
  Angular momentum expansion for Kerker preconditioner not set explicitly.
  | Using default value of   0
  No explicit requirement for turning off preconditioner.
  | By default, it will be turned off when the charge convergence reaches
  | sc_accuracy_rho  =   0.100000E-05
  No special mixing parameter while Kerker preconditioner is on.
  Using default: charge_mix_param =     0.0500.
  No q(lm)/r^(l+1) cutoff set for long-range Hartree potential.
  | Using default value of  0.100000E-09 .
  | Verify using the multipole_threshold keyword.
  Defaulting to new monopole extrapolation.
  Density update method: automatic selection selected.
  Using density matrix based charge density update.
  Using density matrix based charge density update.
  Using packed matrix style: index .
  Defaulting to use time-reversal symmetry for k-point grid.
  Charge integration errors on the 3D integration grid will be compensated
  by explicit normalization and distribution of residual charges.
  Use the "compensate_multipole_errors" flag to change this behaviour.
  Set 'collect_eigenvectors' to be '.true.' for all serial calculations. This is mandatory.
  Set 'collect_eigenvectors' to be '.true.' for KS_method lapack_fast and serial.
 
  Consistency checks for the contents of geometry.in are next.
 

  Range separation radius for Ewald summation (hartree_convergence_parameter):      4.70785872 bohr.
  Number of empty states per atom not set in control.in - providing a guess from actual geometry.
  | Total number of empty states used during s.c.f. cycle:       88
  If you use a very high smearing, use empty_states (per atom!) in control.in to increase this value.

  Structure-dependent array size parameters: 
  | Maximum number of distinct radial functions  :       30
  | Maximum number of basis functions            :      688
  | Number of Kohn-Sham states (occupied + empty):      488
------------------------------------------------------------

------------------------------------------------------------
          Preparing all fixed parts of the calculation.
------------------------------------------------------------
  Determining machine precision:
    2.225073858507201E-308
  Setting up grids for atomic and cluster calculations.

  Creating wave function, potential, and density for free atoms.
  Runtime choices for atomic solver:
  | atomic solver xc        : PW-LDA
  | compute density gradient: 0
  | compute kinetic density : F

  Species: Cd

  List of occupied orbitals and eigenvalues:
    n    l              occ      energy [Ha]    energy [eV]
    1    0           2.0000     -1003.679964    -27311.5214
    2    0           2.0000      -145.365927     -3955.6081
    3    0           2.0000       -26.947790      -733.2867
    4    0           2.0000        -3.883006      -105.6620
    5    0           2.0000        -0.213308        -5.8044
    2    1           6.0000      -130.471038     -3550.2976
    3    1           6.0000       -22.093416      -601.1925
    4    1           6.0000        -2.454772       -66.7977
    3    2          10.0000       -14.484940      -394.1553
    4    2          10.0000        -0.431794       -11.7497


  Species: Te

  List of occupied orbitals and eigenvalues:
    n    l              occ      energy [Ha]    energy [eV]
    1    0           2.0000     -1203.760829    -32755.9988
    2    0           2.0000      -179.258989     -4877.8853
    3    0           2.0000       -35.457560      -964.8493
    4    0           2.0000        -6.018759      -163.7788
    5    0           2.0000        -0.558343       -15.1933
    2    1           6.0000      -160.938578     -4379.3615
    3    1           6.0000       -29.548572      -804.0576
    4    1           6.0000        -4.187973      -113.9605
    5    1           4.0000        -0.218708        -5.9514
    3    2          10.0000       -20.605058      -560.6921
    4    2          10.0000        -1.525706       -41.5166


  Adding cutoff potential to free-atom effective potential.
  Creating fixed part of basis set: Ionic, confined, hydrogenic.
 
  Cd                   hydrogenic:
 
  List of hydrogenic basis orbitals: 
    n    l      effective z      eigenvalue [eV]  inner max. [A]     outer max. [A]     outer radius [A]   
    2    1         1.600000        -8.6069           1.306574           1.306574           4.602417
    4    3         7.000000       -41.6658           1.214167           1.214167           4.546495
    3    0         2.800000       -11.1322           0.139490           2.349512           4.602417
    3    1         5.200000       -40.8769           0.305024           1.214167           4.491253
    3    2         3.800000       -21.8139           1.259523           1.259523           4.546495
 
 
  Te                   ion:

  List of free ionic orbitals and eigenvalues:
    n    l      energy [Ha]    energy [eV]
    1    0     -1204.573764    -32778.1198
    2    0      -180.044648     -4899.2642
    3    0       -36.238957      -986.1122
    4    0        -6.794085      -184.8765
    5    0        -1.243977       -33.8503
    2    1      -161.724210     -4400.7397
    3    1       -30.329842      -825.3170
    4    1        -4.962095      -135.0255
    5    1        -0.853334       -23.2204
    3    2       -21.386047      -581.9439
    4    2        -2.294255       -62.4298


  List of ionic basis orbitals and eigenvalues:
    n    l      energy [Ha]    energy [eV]    outer radius [A]
    5    0        -1.243959       -33.8498       4.045637

 
  Te                   hydrogenic:
 
  List of hydrogenic basis orbitals: 
    n    l      effective z      eigenvalue [eV]  inner max. [A]     outer max. [A]     outer radius [A]   
    3    2         3.700000       -20.6750           1.282089           1.282089           4.571717
    4    3         6.000000       -30.5978           1.413813           1.413813           4.571717
    3    1         2.700000       -10.4143           0.586309           2.249797           4.627949
 
  Creating atomic-like basis functions for current effective potential.

  Species Cd                  :

  List of atomic basis orbitals and eigenvalues:
    n    l      energy [Ha]    energy [eV]    outer radius [A]
    1    0     -1003.679964    -27311.5214       0.213976
    2    0      -145.365927     -3955.6081       0.583074
    3    0       -26.947790      -733.2867       1.338913
    4    0        -3.883006      -105.6620       3.308540
    5    0        -0.213308        -5.8044       4.602417
    2    1      -130.471038     -3550.2976       0.597506
    3    1       -22.093416      -601.1925       1.440814
    4    1        -2.454772       -66.7977       3.926140
    3    2       -14.484940      -394.1553       1.668472
    4    2        -0.431794       -11.7497       4.491253


  Species Te                  :

  List of atomic basis orbitals and eigenvalues:
    n    l      energy [Ha]    energy [eV]    outer radius [A]
    1    0     -1203.760829    -32755.9988       0.197517
    2    0      -179.258989     -4877.8853       0.531683
    3    0       -35.457560      -964.8493       1.176937
    4    0        -6.018759      -163.7788       2.735843
    5    0        -0.558343       -15.1933       4.516168
    2    1      -160.938578     -4379.3615       0.544843
    3    1       -29.548572      -804.0576       1.266511
    4    1        -4.187973      -113.9605       3.168123
    5    1        -0.218708        -5.9514       4.571717
    3    2       -20.605058      -560.6921       1.431203
    4    2        -1.525706       -41.5166       4.196765

  Assembling full basis from fixed parts.
  | Species Cd :   atomic orbital   1 s accepted.
  | Species Cd :   atomic orbital   2 s accepted.
  | Species Cd :   atomic orbital   3 s accepted.
  | Species Cd :   atomic orbital   4 s accepted.
  | Species Cd :   atomic orbital   5 s accepted.
  | Species Cd :    hydro orbital   3 s accepted.
  | Species Cd :   atomic orbital   2 p accepted.
  | Species Cd :   atomic orbital   3 p accepted.
  | Species Cd :   atomic orbital   4 p accepted.
  | Species Cd :    hydro orbital   3 p accepted.
  | Species Cd :    hydro orbital   2 p accepted.
  | Species Cd :   atomic orbital   3 d accepted.
  | Species Cd :   atomic orbital   4 d accepted.
  | Species Cd :    hydro orbital   3 d accepted.
  | Species Cd :    hydro orbital   4 f accepted.
  | Species Te :   atomic orbital   1 s accepted.
  | Species Te :   atomic orbital   2 s accepted.
  | Species Te :   atomic orbital   3 s accepted.
  | Species Te :   atomic orbital   4 s accepted.
  | Species Te :    ionic orbital   5 s accepted.
  | Species Te :   atomic orbital   5 s accepted.
  | Species Te :   atomic orbital   2 p accepted.
  | Species Te :   atomic orbital   3 p accepted.
  | Species Te :   atomic orbital   4 p accepted.
  | Species Te :   atomic orbital   5 p accepted.
  | Species Te :    hydro orbital   3 p accepted.
  | Species Te :   atomic orbital   3 d accepted.
  | Species Te :   atomic orbital   4 d accepted.
  | Species Te :    hydro orbital   3 d accepted.
  | Species Te :    hydro orbital   4 f accepted.
 
  Basis size parameters after reduction:
  | Total number of radial functions:       30
  | Total number of basis functions :      688
 
  Per-task memory consumption for arrays in subroutine allocate_ext:
  |          11.184208MB.
  Testing on-site integration grid accuracy.
  |  Species  Function  <phi|h_atom|phi> (log., in eV)  <phi|h_atom|phi> (rad., in eV)
           1        1             -27311.5214128762             -27311.4679274383 ***
           1        2              -3955.6081431869              -3955.6073199593
           1        3               -733.2866650691               -733.2866328112
           1        4               -105.6619776909               -105.6619753800
           1        5                 -5.8121226255                 -5.8183112134
           1        6                  6.0132456240                  5.9132339404 ***
           1        7              -3550.2975862685              -3550.2975838586
           1        8               -601.1924504581               -601.1924480784
           1        9                -66.7977492606                -66.7977482958
           1       10                  2.0987929099                  2.0986758389
           1       11                  8.4257232987                  8.3106679622 ***
           1       12               -394.1552685698               -394.1552679034
           1       13                -11.7497335876                -11.7497575828
           1       14                 11.3516263419                 11.3466323109
           1       15                 20.5121080061                 20.5116977996
           2       16             -32755.9987536969             -32755.9280171810 ***
           2       17              -4877.8852852798              -4877.8841477431
           2       18               -964.8492875200               -964.8492389122
           2       19               -163.7787627464               -163.7787595632
           2       20                -15.0193172834                -15.0194255877
           2       21                  4.9411809310                  4.9568096183
           2       22              -4379.3615261910              -4379.3615223687
           2       23               -804.0575603133               -804.0575567314
           2       24               -113.9605491910               -113.9605480372
           2       25                 -5.9563216275                 -5.9597863070
           2       26                  6.1906805484                  6.1075658648 ***
           2       27               -560.6921484066               -560.6921470936
           2       28                -41.5165595259                -41.5165590412
           2       29                  5.2888383357                  5.2845088463
           2       30                 13.1608642142                 13.1580114829
 * Note: Onsite integrals marked "***" above are less accurate than
 * onsite_accuracy_threshold =    0.03000 eV. Usually, this is harmless.
 * However, one integral did have a negative value. This integral could be important.
 * When in doubt, tighten the "radial" and/or "radial_multiplier" flags to check.

  Preparing densities etc. for the partition functions (integrals / Hartree potential).

  Preparations completed.
  max(cpu_time)          :      0.255 s.
  Wall clock time (cpu1) :      0.255 s.
------------------------------------------------------------

  Initializing index lists of integration centers etc. from given atomic structure:
  Mapping all atomic coordinates to central unit cell.

  Initializing the k-points
  Using symmetry for reducing the k-points
  | k-points reduced from:       64 to       36
  | Number of k-points                             :        36
  The eigenvectors in the calculations are COMPLEX.
  | K-points in task   0:         9
  | K-points in task   1:         9
  | K-points in task   2:         9
  | K-points in task   3:         9
  | Number of basis functions in the Hamiltonian integrals :      5377
  | Number of basis functions in a single unit cell        :       688
  | Number of centers in hartree potential         :      1106
  | Number of centers in hartree multipole         :       426
  | Number of centers in electron density summation:       308
  | Number of centers in basis integrals           :       360
  | Number of centers in integrals                 :       183
  | Number of centers in hamiltonian               :       308
  | Consuming         20 KiB for k_phase.
  | Number of super-cells (origin) [n_cells]                     :         343
  | Number of super-cells (after PM_index) [n_cells]             :          36
  | Number of super-cells in hamiltonian [n_cells_in_hamiltonian]:          36
  | Size of matrix packed + index [n_hamiltonian_matrix_size] :      793261

------------------------------------------------------------
          Begin self-consistency loop: Initialization.

          Date     :  20230702, Time     :  135841.739
------------------------------------------------------------
  | Estimated reciprocal-space cutoff momentum G_max:         1.96458638 bohr^-1 .
  | Reciprocal lattice points for long-range Hartree potential:     458
  Partitioning the integration grid into batches with parallel hashing+maxmin method.
  | Number of batches:     2067
  | Maximal batch size:     104
  | Minimal batch size:      49
  | Average batch size:      79.884
  | Standard deviation of batch sizes:      12.009

  Integration load balanced across     4 MPI tasks.
  Work distribution over tasks is as follows:
  Task     0 has      41236 integration points.
  Task     1 has      41288 integration points.
  Task     2 has      41287 integration points.
  Task     3 has      41309 integration points.
  Initializing partition tables, free-atom densities, potentials, etc. across the integration grid (initialize_grid_storage).
  | initialize_grid_storage: Actual outermost partition radius vs. multipole_radius_free
  | (-- VB: in principle, multipole_radius_free should be larger, hence this output)
  | Species        1: Confinement radius =              4.999999999999999 AA, multipole_radius_free =              5.013611646002804 AA.
  | Species        1: outer_partition_radius set to              5.013611646002804 AA .
  | Species        2: Confinement radius =              4.999999999999999 AA, multipole_radius_free =              5.041424710192624 AA.
  | Species        2: outer_partition_radius set to              5.041424710192624 AA .
  | The sparse table of interatomic distances needs        321.94 kbyte instead of      1036.80 kbyte of memory.
  | Net number of integration points:   165120
  | of which are non-zero points    :   156955
  | Numerical average free-atom electrostatic potential    :    -13.66026490 eV
  Renormalizing the initial density to the exact electron count on the 3D integration grid.
  | Initial density: Formal number of electrons (from input files) :     800.0000000000
  | Integrated number of electrons on 3D grid     :     800.0112023410
  | Charge integration error                      :       0.0112023410
  | Normalization factor for density and gradient :       0.9999859973
  Renormalizing the free-atom superposition density to the exact electron count on the 3D integration grid.
  | Formal number of electrons (from input files) :     800.0000000000
  | Integrated number of electrons on 3D grid     :     800.0112023410
  | Charge integration error                      :       0.0112023410
  | Normalization factor for density and gradient :       0.9999859973
  Obtaining max. number of non-zero basis functions in each batch (get_n_compute_maxes).
  | Maximal number of non-zero basis functions:      552 in task     0
  | Maximal number of non-zero basis functions:      562 in task     1
  | Maximal number of non-zero basis functions:      544 in task     2
  | Maximal number of non-zero basis functions:      582 in task     3
  Allocating       46.107 MB for KS_eigenvector_complex
  Integrating Hamiltonian matrix: batch-based integration.
  Time summed over all CPUs for integration: real work        3.532 s, elapsed        3.591 s
  Integrating overlap matrix.
  Time summed over all CPUs for integration: real work        2.796 s, elapsed        2.844 s
  Decreasing sparse matrix size:
  | Tolerance:  0.1000E-12
  Hamiltonian matrix
  | Array has   693094 nonzero elements out of   793261 elements
  | Sparsity factor is 0.126
  Overlap matrix
  | Array has   647955 nonzero elements out of   793261 elements
  | Sparsity factor is 0.183
  New size of hamiltonian matrix:      693480

  Updating Kohn-Sham eigenvalues and eigenvectors using ELSI and the (modified) LAPACK eigensolver.

  Obtaining occupation numbers and electronic chemical potential using ELSI.
  | Note that, for insulating systems, the printed 'chemical potential' value is not uniquely defined.
  | It can be anywhere in the energy gap, as long as it correctly separates occupied and unoccupied states.
  | In systems with a gap, the physically relevant chemical potential is the VBM or HOMO.

  | Chemical potential (Fermi level):    -4.91901688 eV
  Writing Kohn-Sham eigenvalues.
  K-point:       1 at    0.000000    0.000000    0.000000 (in units of recip. lattice)

  State    Occupation    Eigenvalue [Ha]    Eigenvalue [eV]
      1       2.00000       -1203.763826       -32756.08031
      2       2.00000       -1203.763825       -32756.08030
      3       2.00000       -1203.763825       -32756.08030
      4       2.00000       -1203.763825       -32756.08030
      5       2.00000       -1203.763825       -32756.08030
      6       2.00000       -1203.763825       -32756.08030
      7       2.00000       -1203.763825       -32756.08030
      8       2.00000       -1203.763825       -32756.08030
      9       2.00000       -1003.684057       -27311.63278
     10       2.00000       -1003.684020       -27311.63179
     11       2.00000       -1003.684020       -27311.63179
     12       2.00000       -1003.684020       -27311.63179
     13       2.00000       -1003.684020       -27311.63179
     14       2.00000       -1003.684020       -27311.63178
     15       2.00000       -1003.684020       -27311.63178
     16       2.00000       -1003.683985       -27311.63082
     17       2.00000        -179.262084        -4877.96949
     18       2.00000        -179.262083        -4877.96948
     19       2.00000        -179.262083        -4877.96948
     20       2.00000        -179.262083        -4877.96948
     21       2.00000        -179.262083        -4877.96948
     22       2.00000        -179.262083        -4877.96948
     23       2.00000        -179.262083        -4877.96948
     24       2.00000        -179.262083        -4877.96948
     25       2.00000        -160.941664        -4379.44549
     26       2.00000        -160.941663        -4379.44549
     27       2.00000        -160.941663        -4379.44548
     28       2.00000        -160.941663        -4379.44547
     29       2.00000        -160.941663        -4379.44547
     30       2.00000        -160.941663        -4379.44547
     31       2.00000        -160.941663        -4379.44547
     32       2.00000        -160.941663        -4379.44547
     33       2.00000        -160.941663        -4379.44547
     34       2.00000        -160.941663        -4379.44547
     35       2.00000        -160.941663        -4379.44547
     36       2.00000        -160.941663        -4379.44547
     37       2.00000        -160.941663        -4379.44547
     38       2.00000        -160.941663        -4379.44547
     39       2.00000        -160.941663        -4379.44547
     40       2.00000        -160.941663        -4379.44547
     41       2.00000        -160.941663        -4379.44547
     42       2.00000        -160.941663        -4379.44547
     43       2.00000        -160.941663        -4379.44547
     44       2.00000        -160.941663        -4379.44547
     45       2.00000        -160.941663        -4379.44547
     46       2.00000        -160.941663        -4379.44547
     47       2.00000        -160.941663        -4379.44547
     48       2.00000        -160.941663        -4379.44547
     49       2.00000        -145.370136        -3955.72266
     50       2.00000        -145.370099        -3955.72166
     51       2.00000        -145.370099        -3955.72166
     52       2.00000        -145.370099        -3955.72166
     53       2.00000        -145.370099        -3955.72166
     54       2.00000        -145.370099        -3955.72165
     55       2.00000        -145.370099        -3955.72165
     56       2.00000        -145.370063        -3955.72068
     57       2.00000        -130.475232        -3550.41172
     58       2.00000        -130.475232        -3550.41170
     59       2.00000        -130.475232        -3550.41170
     60       2.00000        -130.475195        -3550.41071
     61       2.00000        -130.475195        -3550.41071
     62       2.00000        -130.475195        -3550.41071
     63       2.00000        -130.475195        -3550.41071
     64       2.00000        -130.475195        -3550.41071
     65       2.00000        -130.475195        -3550.41071
     66       2.00000        -130.475195        -3550.41071
     67       2.00000        -130.475195        -3550.41071
     68       2.00000        -130.475195        -3550.41071
     69       2.00000        -130.475195        -3550.41071
     70       2.00000        -130.475195        -3550.41071
     71       2.00000        -130.475195        -3550.41070
     72       2.00000        -130.475195        -3550.41070
     73       2.00000        -130.475195        -3550.41070
     74       2.00000        -130.475195        -3550.41070
     75       2.00000        -130.475195        -3550.41070
     76       2.00000        -130.475195        -3550.41070
     77       2.00000        -130.475195        -3550.41070
     78       2.00000        -130.475160        -3550.40974
     79       2.00000        -130.475160        -3550.40974
     80       2.00000        -130.475159        -3550.40972
     81       2.00000         -35.460890         -964.93992
     82       2.00000         -35.460890         -964.93991
     83       2.00000         -35.460890         -964.93991
     84       2.00000         -35.460890         -964.93991
     85       2.00000         -35.460890         -964.93991
     86       2.00000         -35.460890         -964.93991
     87       2.00000         -35.460890         -964.93991
     88       2.00000         -35.460890         -964.93991
     89       2.00000         -29.551907         -804.14830
     90       2.00000         -29.551904         -804.14822
     91       2.00000         -29.551903         -804.14821
     92       2.00000         -29.551903         -804.14821
     93       2.00000         -29.551903         -804.14821
     94       2.00000         -29.551903         -804.14821
     95       2.00000         -29.551903         -804.14821
     96       2.00000         -29.551903         -804.14821
     97       2.00000         -29.551903         -804.14821
     98       2.00000         -29.551903         -804.14821
     99       2.00000         -29.551903         -804.14821
    100       2.00000         -29.551903         -804.14821
    101       2.00000         -29.551903         -804.14821
    102       2.00000         -29.551903         -804.14821
    103       2.00000         -29.551903         -804.14821
    104       2.00000         -29.551903         -804.14821
    105       2.00000         -29.551903         -804.14821
    106       2.00000         -29.551903         -804.14821
    107       2.00000         -29.551903         -804.14821
    108       2.00000         -29.551903         -804.14821
    109       2.00000         -29.551903         -804.14821
    110       2.00000         -29.551903         -804.14821
    111       2.00000         -29.551903         -804.14821
    112       2.00000         -29.551901         -804.14815
    113       2.00000         -26.952401         -733.41215
    114       2.00000         -26.952362         -733.41108
    115       2.00000         -26.952362         -733.41108
    116       2.00000         -26.952362         -733.41108
    117       2.00000         -26.952362         -733.41108
    118       2.00000         -26.952362         -733.41107
    119       2.00000         -26.952362         -733.41107
    120       2.00000         -26.952323         -733.41003
    121       2.00000         -22.098036         -601.31815
    122       2.00000         -22.098031         -601.31802
    123       2.00000         -22.098031         -601.31802
    124       2.00000         -22.097994         -601.31700
    125       2.00000         -22.097994         -601.31700
    126       2.00000         -22.097993         -601.31699
    127       2.00000         -22.097993         -601.31699
    128       2.00000         -22.097993         -601.31699
    129       2.00000         -22.097993         -601.31699
    130       2.00000         -22.097993         -601.31699
    131       2.00000         -22.097993         -601.31699
    132       2.00000         -22.097993         -601.31699
    133       2.00000         -22.097993         -601.31699
    134       2.00000         -22.097993         -601.31699
    135       2.00000         -22.097993         -601.31699
    136       2.00000         -22.097993         -601.31699
    137       2.00000         -22.097993         -601.31699
    138       2.00000         -22.097993         -601.31699
    139       2.00000         -22.097993         -601.31698
    140       2.00000         -22.097992         -601.31697
    141       2.00000         -22.097992         -601.31697
    142       2.00000         -22.097956         -601.31598
    143       2.00000         -22.097956         -601.31598
    144       2.00000         -22.097952         -601.31586
    145       2.00000         -20.608362         -560.78205
    146       2.00000         -20.608360         -560.78202
    147       2.00000         -20.608359         -560.78198
    148       2.00000         -20.608359         -560.78198
    149       2.00000         -20.608359         -560.78198
    150       2.00000         -20.608359         -560.78198
    151       2.00000         -20.608359         -560.78198
    152       2.00000         -20.608359         -560.78198
    153       2.00000         -20.608359         -560.78198
    154       2.00000         -20.608359         -560.78198
    155       2.00000         -20.608359         -560.78198
    156       2.00000         -20.608359         -560.78198
    157       2.00000         -20.608359         -560.78198
    158       2.00000         -20.608359         -560.78198
    159       2.00000         -20.608359         -560.78198
    160       2.00000         -20.608359         -560.78198
    161       2.00000         -20.608359         -560.78198
    162       2.00000         -20.608359         -560.78198
    163       2.00000         -20.608359         -560.78198
    164       2.00000         -20.608359         -560.78198
    165       2.00000         -20.608359         -560.78198
    166       2.00000         -20.608359         -560.78198
    167       2.00000         -20.608359         -560.78198
    168       2.00000         -20.608358         -560.78196
    169       2.00000         -20.608356         -560.78191
    170       2.00000         -20.608356         -560.78190
    171       2.00000         -20.608356         -560.78190
    172       2.00000         -20.608356         -560.78190
    173       2.00000         -20.608356         -560.78190
    174       2.00000         -20.608356         -560.78190
    175       2.00000         -20.608356         -560.78190
    176       2.00000         -20.608356         -560.78190
    177       2.00000         -20.608356         -560.78190
    178       2.00000         -20.608356         -560.78190
    179       2.00000         -20.608356         -560.78190
    180       2.00000         -20.608356         -560.78190
    181       2.00000         -20.608356         -560.78190
    182       2.00000         -20.608356         -560.78190
    183       2.00000         -20.608356         -560.78190
    184       2.00000         -20.608356         -560.78190
    185       2.00000         -14.489517         -394.27981
    186       2.00000         -14.489514         -394.27974
    187       2.00000         -14.489514         -394.27973
    188       2.00000         -14.489508         -394.27956
    189       2.00000         -14.489507         -394.27955
    190       2.00000         -14.489476         -394.27870
    191       2.00000         -14.489476         -394.27869
    192       2.00000         -14.489475         -394.27869
    193       2.00000         -14.489475         -394.27869
    194       2.00000         -14.489475         -394.27869
    195       2.00000         -14.489475         -394.27869
    196       2.00000         -14.489475         -394.27869
    197       2.00000         -14.489475         -394.27869
    198       2.00000         -14.489475         -394.27869
    199       2.00000         -14.489475         -394.27869
    200       2.00000         -14.489475         -394.27869
    201       2.00000         -14.489475         -394.27869
    202       2.00000         -14.489475         -394.27869
    203       2.00000         -14.489475         -394.27869
    204       2.00000         -14.489475         -394.27869
    205       2.00000         -14.489475         -394.27868
    206       2.00000         -14.489475         -394.27867
    207       2.00000         -14.489475         -394.27867
    208       2.00000         -14.489469         -394.27851
    209       2.00000         -14.489469         -394.27851
    210       2.00000         -14.489469         -394.27850
    211       2.00000         -14.489469         -394.27850
    212       2.00000         -14.489469         -394.27850
    213       2.00000         -14.489469         -394.27850
    214       2.00000         -14.489469         -394.27850
    215       2.00000         -14.489469         -394.27850
    216       2.00000         -14.489469         -394.27850
    217       2.00000         -14.489469         -394.27850
    218       2.00000         -14.489468         -394.27849
    219       2.00000         -14.489468         -394.27849
    220       2.00000         -14.489439         -394.27769
    221       2.00000         -14.489438         -394.27768
    222       2.00000         -14.489435         -394.27759
    223       2.00000         -14.489430         -394.27746
    224       2.00000         -14.489430         -394.27745
    225       2.00000          -6.023403         -163.90513
    226       2.00000          -6.023402         -163.90510
    227       2.00000          -6.023402         -163.90510
    228       2.00000          -6.023402         -163.90510
    229       2.00000          -6.023402         -163.90510
    230       2.00000          -6.023402         -163.90510
    231       2.00000          -6.023402         -163.90510
    232       2.00000          -6.023402         -163.90510
    233       2.00000          -4.192968         -114.09646
    234       2.00000          -4.192945         -114.09583
    235       2.00000          -4.192944         -114.09582
    236       2.00000          -4.192944         -114.09582
    237       2.00000          -4.192944         -114.09582
    238       2.00000          -4.192944         -114.09582
    239       2.00000          -4.192944         -114.09582
    240       2.00000          -4.192944         -114.09582
    241       2.00000          -4.192944         -114.09582
    242       2.00000          -4.192944         -114.09581
    243       2.00000          -4.192944         -114.09581
    244       2.00000          -4.192944         -114.09581
    245       2.00000          -4.192944         -114.09581
    246       2.00000          -4.192944         -114.09581
    247       2.00000          -4.192944         -114.09581
    248       2.00000          -4.192944         -114.09581
    249       2.00000          -4.192944         -114.09581
    250       2.00000          -4.192944         -114.09581
    251       2.00000          -4.192944         -114.09581
    252       2.00000          -4.192944         -114.09581
    253       2.00000          -4.192944         -114.09581
    254       2.00000          -4.192944         -114.09581
    255       2.00000          -4.192944         -114.09581
    256       2.00000          -4.192922         -114.09522
    257       2.00000          -3.890342         -105.86158
    258       2.00000          -3.890284         -105.86001
    259       2.00000          -3.890284         -105.86001
    260       2.00000          -3.890284         -105.86001
    261       2.00000          -3.890284         -105.86001
    262       2.00000          -3.890284         -105.86001
    263       2.00000          -3.890284         -105.86001
    264       2.00000          -3.890228         -105.85849
    265       2.00000          -2.463121          -67.02492
    266       2.00000          -2.463074          -67.02364
    267       2.00000          -2.463073          -67.02362
    268       2.00000          -2.463031          -67.02249
    269       2.00000          -2.463031          -67.02248
    270       2.00000          -2.463027          -67.02237
    271       2.00000          -2.463027          -67.02237
    272       2.00000          -2.463026          -67.02234
    273       2.00000          -2.463026          -67.02234
    274       2.00000          -2.463026          -67.02233
    275       2.00000          -2.463025          -67.02233
    276       2.00000          -2.463025          -67.02232
    277       2.00000          -2.463025          -67.02231
    278       2.00000          -2.463024          -67.02230
    279       2.00000          -2.463024          -67.02230
    280       2.00000          -2.463024          -67.02230
    281       2.00000          -2.463024          -67.02230
    282       2.00000          -2.463024          -67.02229
    283       2.00000          -2.463024          -67.02228
    284       2.00000          -2.463019          -67.02216
    285       2.00000          -2.463018          -67.02214
    286       2.00000          -2.462979          -67.02106
    287       2.00000          -2.462978          -67.02104
    288       2.00000          -2.462932          -67.01979
    289       2.00000          -1.532231          -41.69412
    290       2.00000          -1.532218          -41.69376
    291       2.00000          -1.532216          -41.69371
    292       2.00000          -1.532211          -41.69357
    293       2.00000          -1.532202          -41.69334
    294       2.00000          -1.532202          -41.69333
    295       2.00000          -1.532200          -41.69328
    296       2.00000          -1.532199          -41.69326
    297       2.00000          -1.532197          -41.69320
    298       2.00000          -1.532195          -41.69314
    299       2.00000          -1.532192          -41.69307
    300       2.00000          -1.532188          -41.69294
    301       2.00000          -1.532187          -41.69293
    302       2.00000          -1.532187          -41.69293
    303       2.00000          -1.532187          -41.69292
    304       2.00000          -1.532187          -41.69292
    305       2.00000          -1.532186          -41.69292
    306       2.00000          -1.532181          -41.69278
    307       2.00000          -1.532179          -41.69272
    308       2.00000          -1.532177          -41.69265
    309       2.00000          -1.532176          -41.69264
    310       2.00000          -1.532176          -41.69264
    311       2.00000          -1.532176          -41.69264
    312       2.00000          -1.532158          -41.69213
    313       2.00000          -1.531714          -41.68007
    314       2.00000          -1.531714          -41.68006
    315       2.00000          -1.531714          -41.68006
    316       2.00000          -1.531709          -41.67994
    317       2.00000          -1.531709          -41.67993
    318       2.00000          -1.531706          -41.67984
    319       2.00000          -1.531706          -41.67983
    320       2.00000          -1.531705          -41.67983
    321       2.00000          -1.531705          -41.67983
    322       2.00000          -1.531705          -41.67983
    323       2.00000          -1.531705          -41.67983
    324       2.00000          -1.531705          -41.67983
    325       2.00000          -1.531705          -41.67982
    326       2.00000          -1.531694          -41.67952
    327       2.00000          -1.531694          -41.67952
    328       2.00000          -1.531694          -41.67952
    329       2.00000          -0.617059          -16.79103
    330       2.00000          -0.601112          -16.35708
    331       2.00000          -0.601099          -16.35673
    332       2.00000          -0.601098          -16.35672
    333       2.00000          -0.601087          -16.35642
    334       2.00000          -0.595899          -16.21525
    335       2.00000          -0.595898          -16.21521
    336       2.00000          -0.595898          -16.21521
    337       2.00000          -0.460322          -12.52601
    338       2.00000          -0.460292          -12.52518
    339       2.00000          -0.460263          -12.52438
    340       2.00000          -0.457307          -12.44395
    341       2.00000          -0.457262          -12.44272
    342       2.00000          -0.457235          -12.44201
    343       2.00000          -0.457233          -12.44195
    344       2.00000          -0.457214          -12.44143
    345       2.00000          -0.457213          -12.44139
    346       2.00000          -0.457186          -12.44067
    347       2.00000          -0.457143          -12.43950
    348       2.00000          -0.453302          -12.33497
    349       2.00000          -0.453270          -12.33410
    350       2.00000          -0.453237          -12.33321
    351       2.00000          -0.452395          -12.31030
    352       2.00000          -0.452341          -12.30882
    353       2.00000          -0.452318          -12.30820
    354       2.00000          -0.452318          -12.30819
    355       2.00000          -0.452296          -12.30759
    356       2.00000          -0.452239          -12.30605
    357       2.00000          -0.447077          -12.16558
    358       2.00000          -0.447075          -12.16552
    359       2.00000          -0.446780          -12.15750
    360       2.00000          -0.446779          -12.15748
    361       2.00000          -0.446740          -12.15642
    362       2.00000          -0.446738          -12.15636
    363       2.00000          -0.446735          -12.15626
    364       2.00000          -0.446732          -12.15621
    365       2.00000          -0.446693          -12.15513
    366       2.00000          -0.446692          -12.15510
    367       2.00000          -0.445715          -12.12851
    368       2.00000          -0.445700          -12.12811
    369       2.00000          -0.445687          -12.12777
    370       2.00000          -0.438489          -11.93190
    371       2.00000          -0.438474          -11.93149
    372       2.00000          -0.438473          -11.93145
    373       2.00000          -0.438457          -11.93103
    374       2.00000          -0.435428          -11.84859
    375       2.00000          -0.435427          -11.84858
    376       2.00000          -0.435427          -11.84858
    377       2.00000          -0.357023           -9.71509
    378       2.00000          -0.356939           -9.71279
    379       2.00000          -0.356934           -9.71266
    380       2.00000          -0.356851           -9.71041
    381       2.00000          -0.349373           -9.50693
    382       2.00000          -0.349261           -9.50388
    383       2.00000          -0.349148           -9.50081
    384       2.00000          -0.266384           -7.24869
    385       2.00000          -0.266368           -7.24823
    386       2.00000          -0.266364           -7.24814
    387       2.00000          -0.266364           -7.24814
    388       2.00000          -0.266361           -7.24805
    389       2.00000          -0.266343           -7.24756
    390       2.00000          -0.226703           -6.16891
    391       2.00000          -0.226681           -6.16831
    392       2.00000          -0.226609           -6.16635
    393       2.00000          -0.226605           -6.16624
    394       2.00000          -0.226601           -6.16613
    395       2.00000          -0.226597           -6.16602
    396       2.00000          -0.226525           -6.16405
    397       2.00000          -0.226503           -6.16345
    398       2.00000          -0.198698           -5.40684
    399       2.00000          -0.198673           -5.40616
    400       2.00000          -0.198648           -5.40549
    401       0.00000          -0.167068           -4.54615
    402       0.00000          -0.125357           -3.41115
    403       0.00000          -0.125254           -3.40833
    404       0.00000          -0.125251           -3.40826
    405       0.00000          -0.125147           -3.40541
    406       0.00000          -0.092792           -2.52500
    407       0.00000          -0.092785           -2.52480
    408       0.00000          -0.092780           -2.52467
    409       0.00000          -0.092149           -2.50751
    410       0.00000          -0.091973           -2.50270
    411       0.00000          -0.091815           -2.49841
    412       0.00000          -0.015281           -0.41582
    413       0.00000          -0.015253           -0.41506
    414       0.00000          -0.015224           -0.41427
    415       0.00000           0.008290            0.22559
    416       0.00000           0.008342            0.22700
    417       0.00000           0.008477            0.23066
    418       0.00000           0.008493            0.23110
    419       0.00000           0.008501            0.23134
    420       0.00000           0.008516            0.23174
    421       0.00000           0.008653            0.23545
    422       0.00000           0.008705            0.23687
    423       0.00000           0.079779            2.17089
    424       0.00000           0.079821            2.17203
    425       0.00000           0.079825            2.17214
    426       0.00000           0.079867            2.17330
    427       0.00000           0.099140            2.69774
    428       0.00000           0.137417            3.73932
    429       0.00000           0.137448            3.74014
    430       0.00000           0.137482            3.74107
    431       0.00000           0.150102            4.08448
    432       0.00000           0.150177            4.08651
    433       0.00000           0.150178            4.08656
    434       0.00000           0.150254            4.08861
    435       0.00000           0.151586            4.12486
    436       0.00000           0.151770            4.12989
    437       0.00000           0.151816            4.13111
    438       0.00000           0.151816            4.13113
    439       0.00000           0.151860            4.13231
    440       0.00000           0.152060            4.13776
    441       0.00000           0.180258            4.90506
    442       0.00000           0.180260            4.90514
    443       0.00000           0.217134            5.90851
    444       0.00000           0.217162            5.90927
    445       0.00000           0.217294            5.91287
    446       0.00000           0.217332            5.91391
    447       0.00000           0.217343            5.91421
    448       0.00000           0.217379            5.91518
    449       0.00000           0.217515            5.91890
    450       0.00000           0.217540            5.91956
    451       0.00000           0.231717            6.30535
    452       0.00000           0.231718            6.30537
    453       0.00000           0.231719            6.30538
    454       0.00000           0.240415            6.54202
    455       0.00000           0.240484            6.54392
    456       0.00000           0.240538            6.54537
    457       0.00000           0.248794            6.77003
    458       0.00000           0.248803            6.77027
    459       0.00000           0.248805            6.77032
    460       0.00000           0.248812            6.77052
    461       0.00000           0.254050            6.91305
    462       0.00000           0.254210            6.91739
    463       0.00000           0.254253            6.91857
    464       0.00000           0.254253            6.91858
    465       0.00000           0.254295            6.91973
    466       0.00000           0.254462            6.92427
    467       0.00000           0.269308            7.32825
    468       0.00000           0.269316            7.32846
    469       0.00000           0.269438            7.33177
    470       0.00000           0.269479            7.33289
    471       0.00000           0.269481            7.33296
    472       0.00000           0.269525            7.33415
    473       0.00000           0.269650            7.33756
    474       0.00000           0.269656            7.33770
    475       0.00000           0.294804            8.02203
    476       0.00000           0.294804            8.02204
    477       0.00000           0.294806            8.02208
    478       0.00000           0.354868            9.65645
    479       0.00000           0.354878            9.65671
    480       0.00000           0.354890            9.65706
    481       0.00000           0.432344           11.76467
    482       0.00000           0.432344           11.76469
    483       0.00000           0.432345           11.76470
    484       0.00000           0.440235           11.97940
    485       0.00000           0.440273           11.98045
    486       0.00000           0.440274           11.98046
    487       0.00000           0.440313           11.98152
    488       0.00000           0.443971           12.08107

  What follows are estimated values for band gap, HOMO, LUMO, etc.
  | They are estimated on a discrete k-point grid and not necessarily exact.
  | For converged numbers, create a DOS and/or band structure plot on a denser k-grid.

  Highest occupied state (VBM) at     -5.40548971 eV (relative to internal zero)
  | Occupation number:      2.00000000
  | K-point:       1 at    0.000000    0.000000    0.000000 (in units of recip. lattice)

  Lowest unoccupied state (CBM) at    -4.54614859 eV (relative to internal zero)
  | Occupation number:      0.00000000
  | K-point:       1 at    0.000000    0.000000    0.000000 (in units of recip. lattice)

  ESTIMATED overall HOMO-LUMO gap:      0.85934111 eV between HOMO at k-point 1 and LUMO at k-point 1
  | This appears to be a direct band gap.
  The gap value is above 0.2 eV. Unless you are using a very sparse k-point grid,
  this system is most likely an insulator or a semiconductor.
  Calculating total energy contributions from superposition of free atom densities.

  Total energy components:
  | Sum of eigenvalues            :      -61446.46085646 Ha    -1672043.27252935 eV
  | XC energy correction          :       -2568.96585528 Ha      -69905.11765550 eV
  | XC potential correction       :        3406.86672195 Ha       92705.56031127 eV
  | Free-atom electrostatic energy:      -39769.88494657 Ha    -1082193.63080188 eV
  | Hartree energy correction     :           0.00000000 Ha           0.00000000 eV
  | Entropy correction            :           0.00000000 Ha           0.00000000 eV
  | ---------------------------
  | Total energy                  :     -100378.44493636 Ha    -2731436.46067546 eV
  | Total energy, T -> 0          :     -100378.44493636 Ha    -2731436.46067546 eV  <-- do not rely on this value for anything but (periodic) metals
  | Electronic free energy        :     -100378.44493636 Ha    -2731436.46067546 eV

  Derived energy quantities:
  | Kinetic energy                :      104857.19653539 Ha     2853309.49251664 eV
  | Electrostatic energy          :     -202666.67561647 Ha    -5514840.83553659 eV
  | Energy correction for multipole
  | error in Hartree potential    :           0.00000000 Ha           0.00000000 eV
  | Sum of eigenvalues per atom                           :     -104502.70453308 eV
  | Total energy (T->0) per atom                          :     -170714.77879222 eV  <-- do not rely on this value for anything but (periodic) metals
  | Electronic free energy per atom                       :     -170714.77879222 eV
  Initialize hartree_potential_storage
  Max. number of atoms included in rho_multipole:           16

  End scf initialization - timings             :  max(cpu_time)    wall_clock(cpu1)
  | Time for scf. initialization                :        4.845 s           4.846 s
  | Boundary condition initialization           :        0.184 s           0.183 s
  | Integration                                 :        1.631 s           1.631 s
  | Solution of K.-S. eqns.                     :        2.187 s           2.186 s
  | Grid partitioning                           :        0.377 s           0.378 s
  | Preloading free-atom quantities on grid     :        0.522 s           0.522 s
  | Free-atom superposition energy              :        0.117 s           0.117 s
  | Total energy evaluation                     :        0.000 s           0.001 s

  Partial memory accounting:
  | Current value for overall tracked memory usage:
  |   Minimum:       59.336 MB (on task 0)
  |   Maximum:       59.336 MB (on task 0)
  |   Average:       59.336 MB
  | Peak value for overall tracked memory usage:
  |   Minimum:       88.242 MB (on task 0 after allocating eval_tmp)
  |   Maximum:       88.242 MB (on task 0 after allocating eval_tmp)
  |   Average:       88.242 MB
  | Largest tracked array allocation so far:
  |   Minimum:       46.107 MB (KS_eigenvector_complex on task 0)
  |   Maximum:       46.107 MB (KS_eigenvector_complex on task 0)
  |   Average:       46.107 MB
  Note:  These values currently only include a subset of arrays which are explicitly tracked.
  The "true" memory usage will be greater.
------------------------------------------------------------
  Time for density update prior                :  max(cpu_time)    wall_clock(cpu1)
  | self-consistency iterative process          :        0.950 s           0.950 s
------------------------------------------------------------
Convergence:    q app. |  density  | eigen (eV) | Etot (eV) | forces (eV/A) |       CPU time |     Clock time
  SCF    1 :  0.12E-11 |  0.22E+00 |  -0.15E+02 |  0.25E+00 |             . |        5.054 s |        5.054 s
  SCF    2 :  0.28E-11 |  0.20E+00 |  -0.14E+03 |  0.14E+01 |             . |        6.697 s |        6.697 s
  SCF    3 :  0.19E-11 |  0.10E+00 |  -0.54E+02 |  0.16E+00 |             . |        8.771 s |        8.771 s
  SCF    4 : -0.34E-11 |  0.40E-01 |   0.70E+01 |  0.12E-01 |             . |        8.492 s |        8.492 s
  SCF    5 : -0.18E-11 |  0.22E-01 |   0.21E+02 |  0.97E-02 |             . |        8.710 s |        8.710 s
  SCF    6 : -0.21E-11 |  0.28E-02 |   0.28E+01 | -0.36E-05 |             . |        8.521 s |        8.521 s
  SCF    7 : -0.66E-12 |  0.90E-03 |  -0.11E+01 | -0.42E-04 |             . |        8.657 s |        8.657 s
  SCF    8 :  0.13E-11 |  0.63E-03 |  -0.13E+01 |  0.18E-03 |             . |        8.625 s |        8.626 s
  SCF    9 : -0.48E-11 |  0.95E-04 |  -0.29E+00 |  0.67E-05 |             . |        8.533 s |        8.532 s
  SCF   10 : -0.39E-11 |  0.46E-04 |   0.13E+00 |  0.16E-05 |             . |        8.214 s |        8.215 s
  SCF   11 :  0.74E-13 |  0.61E-05 |   0.15E-02 | -0.28E-06 |             . |        8.163 s |        8.163 s
  SCF   12 : -0.39E-11 |  0.23E-05 |   0.43E-02 |  0.22E-07 |             . |        8.202 s |        8.202 s
  SCF   13 : -0.61E-11 |  0.13E-05 |   0.19E-03 | -0.25E-07 |             . |        9.023 s |        9.023 s
  SCF   14 :  0.15E-11 |  0.58E-06 |   0.44E-03 |  0.12E-07 |             . |        9.014 s |        9.014 s
  SCF   15 : -0.22E-11 |  0.35E-06 |   0.49E-03 | -0.66E-07 |      0.19E-01 |       36.992 s |       36.993 s

  Total energy components:
  | Sum of eigenvalues            :      -61453.11756651 Ha    -1672224.41082595 eV
  | XC energy correction          :       -2568.73719414 Ha      -69898.89546916 eV
  | XC potential correction       :        3406.56516813 Ha       92697.35461428 eV
  | Free-atom electrostatic energy:      -39769.88494657 Ha    -1082193.63080188 eV
  | Hartree energy correction     :           6.79636819 Ha         184.93858796 eV
  | Entropy correction            :          -0.00000000 Ha          -0.00000000 eV
  | ---------------------------
  | Total energy                  :     -100378.37817090 Ha    -2731434.64389476 eV
  | Total energy, T -> 0          :     -100378.37817090 Ha    -2731434.64389476 eV  <-- do not rely on this value for anything but (periodic) metals
  | Electronic free energy        :     -100378.37817090 Ha    -2731434.64389476 eV

  Derived energy quantities:
  | Kinetic energy                :      104858.45281566 Ha     2853343.67764209 eV
  | Electrostatic energy          :     -202668.09379242 Ha    -5514879.42606769 eV
  | Energy correction for multipole
  | error in Hartree potential    :           0.02087623 Ha           0.56807109 eV
  | Sum of eigenvalues per atom                           :     -104514.02567662 eV
  | Total energy (T->0) per atom                          :     -170714.66524342 eV  <-- do not rely on this value for anything but (periodic) metals
  | Electronic free energy per atom                       :     -170714.66524342 eV
  What follows are estimated values for band gap, HOMO, LUMO, etc.
  | They are estimated on a discrete k-point grid and not necessarily exact.
  | For converged numbers, create a DOS and/or band structure plot on a denser k-grid.

  Highest occupied state (VBM) at     -5.17722205 eV (relative to internal zero)
  | Occupation number:      2.00000000
  | K-point:       1 at    0.000000    0.000000    0.000000 (in units of recip. lattice)

  Lowest unoccupied state (CBM) at    -4.65612732 eV (relative to internal zero)
  | Occupation number:      0.00000000
  | K-point:       1 at    0.000000    0.000000    0.000000 (in units of recip. lattice)

  ESTIMATED overall HOMO-LUMO gap:      0.52109474 eV between HOMO at k-point 1 and LUMO at k-point 1
  | This appears to be a direct band gap.
  The gap value is above 0.2 eV. Unless you are using a very sparse k-point grid,
  this system is most likely an insulator or a semiconductor.

  | Chemical Potential                          :    -4.82450876 eV
  | Note that, for insulating systems, the printed 'chemical potential' value is not uniquely defined.
  | It can be anywhere in the energy gap, as long as it correctly separates occupied and unoccupied states.
  | In systems with a gap, the physically relevant chemical potential is the VBM or HOMO.

  Self-consistency cycle converged.

  Removing unitary transformations (pure translations, rotations) from forces on atoms.
  Atomic forces before filtering:
  | Net force on center of mass :  -0.128220E-03  0.972802E-04  0.113783E-03 eV/A
  Atomic forces after filtering:
  | Net force on center of mass :   0.221592E-17  0.204714E-17 -0.540097E-17 eV/A

  Energy and forces in a compact form:
  | Total energy uncorrected      :         -0.273143464389476E+07 eV
  | Total energy corrected        :         -0.273143464389476E+07 eV  <-- do not rely on this value for anything but (periodic) metals
  | Electronic free energy        :         -0.273143464389476E+07 eV
  Total atomic forces (unitary forces cleaned) [eV/Ang]:
  |    1         -0.373722893237362E-03         -0.236425998929922E-04         -0.376925251705710E-03
  |    2          0.342995439667971E-03         -0.221584173072932E-04         -0.376446099965244E-03
  |    3         -0.158764446510709E-04          0.339198658390188E-03         -0.190187783396360E-04
  |    4          0.276877410806423E-04         -0.504757183753651E-03         -0.917384460384366E-03
  |    5         -0.107952154416156E-04          0.331685645372802E-03         -0.138492922179953E-04
  |    6          0.312716131719764E-04         -0.563322815356706E-03         -0.857441475310808E-03
  |    7          0.154100206423142E-01         -0.158730312567998E-01         -0.162243376968160E-01
  |    8         -0.148032681151774E-01         -0.154043751354987E-01         -0.157531514212010E-01
  |    9         -0.826190528205600E-03          0.449237532071049E-01          0.452744977434908E-01
  |   10          0.299204222977694E-04         -0.605049612242447E-02         -0.569817872965135E-02
  |   11         -0.309628110691083E-02         -0.727094899468054E-03         -0.257252754788895E-02
  |   12          0.315548415324458E-02         -0.292854091418331E-02         -0.369650099655304E-03
  |   13         -0.308903183683413E-02         -0.292411906199716E-02         -0.377055868437118E-03
  |   14          0.316077910748877E-02         -0.724344840796047E-03         -0.257609631141411E-02
  |   15          0.328490628442102E-04          0.200931686005503E-03          0.552062243197663E-03
  |   16          0.241579583478436E-04         -0.496859493952039E-04          0.305503046299137E-03


------------------------------------------------------------------------------
  Final output of selected total energy values:

  The following output summarizes some interesting total energy values
  at the end of a run (AFTER all relaxation, molecular dynamics, etc.).

  | Total energy of the DFT / Hartree-Fock s.c.f. calculation      :       -2731434.643894757 eV
  | Final zero-broadening corrected energy (caution - metals only) :       -2731434.643894757 eV
  | For reference only, the value of 1 Hartree used in FHI-aims is :             27.211384500 eV
  | For reference only, the overall average (free atom contribution
  | + realspace contribution) of the electrostatic potential after
  | s.c.f. convergence is                                          :            -13.745216878 eV

  Before relying on these values, please be sure to understand exactly which
  total energy value is referred to by a given number. Different objects may
  all carry the same name 'total energy'. Definitions:

  Total energy of the DFT / Hartree-Fock s.c.f. calculation:
  | Note that this energy does not include ANY quantities calculated after the
  | s.c.f. cycle, in particular not ANY RPA, MP2, etc. many-body perturbation terms.

  Final zero-broadening corrected energy:
  | For metallic systems only, a broadening of the occupation numbers at the Fermi
  | level can be extrapolated back to zero broadening by an electron-gas inspired
  | formula. For all systems that are not real metals, this value can be
  | meaningless and should be avoided.

------------------------------------------------------------------------------
  Methods described in the following list of references were used in this FHI-aims run.
  If you publish the results, please make sure to cite these reference if they apply.
  FHI-aims is an academic code, and for our developers (often, Ph.D. students
  and postdocs), scientific credit in the community is essential.
  Thank you for helping us!

  For any use of FHI-aims, please cite:

    Volker Blum, Ralf Gehrke, Felix Hanke, Paula Havu, Ville Havu,
    Xinguo Ren, Karsten Reuter, and Matthias Scheffler
    'Ab initio molecular simulations with numeric atom-centered orbitals'
    Computer Physics Communications 180, 2175-2196 (2009)
    http://doi.org/10.1016/j.cpc.2009.06.022


  The provided symmetry information was generated with SPGlib:

    Atsushi Togo, Yusuke Seto, Dimitar Pashov
    SPGlib 1.7.3 obtained from http://spglib.sourceforge.net
    Copyright (C) 2008 Atsushi Togo


  The ELSI infrastructure was used in your run to solve the Kohn-Sham electronic structure.
  Please check out http://elsi-interchange.org to learn more.
  If scalability is important for your project, please acknowledge ELSI by citing:

    V. W-z. Yu, F. Corsetti, A. Garcia, W. P. Huhn, M. Jacquelin, W. Jia,
    B. Lange, L. Lin, J. Lu, W. Mi, A. Seifitokaldani, A. Vazquez-Mayagoitia,
    C. Yang, H. Yang, and V. Blum
    'ELSI: A unified software interface for Kohn-Sham electronic structure solvers'
    Computer Physics Communications 222, 267-285 (2018).
    http://doi.org/10.1016/j.cpc.2017.09.007


  For the real-space grid partitioning and parallelization used in this calculation, please cite:

    Ville Havu, Volker Blum, Paula Havu, and Matthias Scheffler,
    'Efficient O(N) integration for all-electron electronic structure calculation'
    'using numerically tabulated basis functions'
    Journal of Computational Physics 228, 8367-8379 (2009).
    http://doi.org/10.1016/j.jcp.2009.08.008

  Of course, there are many other important community references, e.g., those cited in the
  above references. Our list is limited to references that describe implementations in the
  FHI-aims code. The reason is purely practical (length of this list) - please credit others as well.

 * A warning was issued further up regarding the accuracy of onsite integrals.
   An integral with a negative eigenvalue was among the flagged integrals.
   In most standard situations, this warning is probably harmless.
   If needed, this can be verified by adjusting the radial_multiplier flag.

------------------------------------------------------------
          Leaving FHI-aims.
          Date     :  20230702, Time     :  140119.229

          Computational steps:
          | Number of self-consistency cycles          :           15
          | Number of SCF (re)initializations          :            1

          Detailed time accounting                     :  max(cpu_time)    wall_clock(cpu1)
          | Total time                                  :      157.966 s         157.970 s
          | Preparation time                            :        0.255 s           0.255 s
          | Boundary condition initalization            :        0.184 s           0.183 s
          | Grid partitioning                           :        0.377 s           0.378 s
          | Preloading free-atom quantities on grid     :        0.522 s           0.522 s
          | Free-atom superposition energy              :        0.117 s           0.117 s
          | Total time for integrations                 :       24.350 s          24.349 s
          | Total time for solution of K.-S. equations  :       36.895 s          36.899 s
          | Total time for density & force components   :       43.200 s          43.198 s
          | Total time for mixing & preconditioning     :        4.405 s           4.405 s
          | Total time for Hartree multipole update     :        0.064 s           0.068 s
          | Total time for Hartree multipole sum        :       43.635 s          43.636 s
          | Total time for total energy evaluation      :        0.008 s           0.013 s
          | Total time NSC force correction             :        3.865 s           3.865 s
          | Total time for scaled ZORA corrections      :        0.000 s           0.000 s

          Partial memory accounting:
          | Residual value for overall tracked memory usage across tasks:     0.000000 MB (should be 0.000000 MB)
          | Peak values for overall tracked memory usage:
          |   Minimum:       88.243 MB (on task 0 after allocating eval_tmp)
          |   Maximum:       88.243 MB (on task 0 after allocating eval_tmp)
          |   Average:       88.243 MB
          | Largest tracked array allocation:
          |   Minimum:       46.107 MB (KS_eigenvector_complex on task 0)
          |   Maximum:       46.107 MB (KS_eigenvector_complex on task 0)
          |   Average:       46.107 MB
          Note:  These values currently only include a subset of arrays which are explicitly tracked.
          The "true" memory usage will be greater.

          Have a nice day.
------------------------------------------------------------
