14.399652
   8.73171666   -0.00004405    0.00000000   -0.00004405    8.73171666   -0.00000000    0.00000000   -0.00000000    8.73166364
   2.18030923    0.00000040   -0.00000000    0.00000040    2.18030924   -0.00000000   -0.00000000   -0.00000000    2.18043679
  -2.18030923   -0.00000040    0.00000000   -0.00000040   -2.18030924    0.00000000    0.00000000    0.00000000   -2.18043679
