   2   2   0   0
  0.3408459E+02  0.4585296E-09  0.4585300E-09  0.4585305E-09  0.5000000E-15
  1.000000000000000E-004
  CAR 
 unknown system                          
     27.68785695    -10.57202651  301      2.34068416      1.00000000
    -10.572  0.0000E+00  0.0000E+00
    -10.444  0.0000E+00  0.0000E+00
    -10.317  0.0000E+00  0.0000E+00
    -10.189  0.0000E+00  0.0000E+00
    -10.062  0.0000E+00  0.0000E+00
     -9.934  0.0000E+00  0.0000E+00
     -9.807  0.0000E+00  0.0000E+00
     -9.679  0.0000E+00  0.0000E+00
     -9.552  0.0000E+00  0.0000E+00
     -9.424  0.0000E+00  0.0000E+00
     -9.297  0.0000E+00  0.0000E+00
     -9.169  0.0000E+00  0.0000E+00
     -9.042  0.0000E+00  0.0000E+00
     -8.914  0.0000E+00  0.0000E+00
     -8.787  0.4594E-01  0.1318E-01
     -8.659  0.1482E-05  0.1265E+00
     -8.531  0.2290E+00  0.3832E+00
     -8.404  0.3005E+00  0.1044E+01
     -8.276  0.0000E+00  0.2000E+01
     -8.149  0.0000E+00  0.2000E+01
     -8.021  0.0000E+00  0.2000E+01
     -7.894  0.0000E+00  0.2000E+01
     -7.766  0.0000E+00  0.2000E+01
     -7.639  0.0000E+00  0.2000E+01
     -7.511  0.0000E+00  0.2000E+01
     -7.384  0.0000E+00  0.2000E+01
     -7.256  0.0000E+00  0.2000E+01
     -7.129  0.0000E+00  0.2000E+01
     -7.001  0.0000E+00  0.2000E+01
     -6.874  0.0000E+00  0.2000E+01
     -6.746  0.0000E+00  0.2000E+01
     -6.619  0.0000E+00  0.2000E+01
     -6.491  0.0000E+00  0.2000E+01
     -6.363  0.0000E+00  0.2000E+01
     -6.236  0.0000E+00  0.2000E+01
     -6.108  0.0000E+00  0.2000E+01
     -5.981  0.0000E+00  0.2000E+01
     -5.853  0.2653E+01  0.4340E+01
     -5.726  0.1327E+01  0.6969E+01
     -5.598  0.1838E+00  0.1038E+02
     -5.471  0.8505E-01  0.1062E+02
     -5.343  0.9189E-01  0.1101E+02
     -5.216  0.2201E+00  0.1157E+02
     -5.088  0.0000E+00  0.1200E+02
     -4.961  0.0000E+00  0.1200E+02
     -4.833  0.0000E+00  0.1200E+02
     -4.706  0.0000E+00  0.1200E+02
     -4.578  0.0000E+00  0.1200E+02
     -4.450  0.0000E+00  0.1200E+02
     -4.323  0.0000E+00  0.1200E+02
     -4.195  0.0000E+00  0.1200E+02
     -4.068  0.0000E+00  0.1200E+02
     -3.940  0.0000E+00  0.1200E+02
     -3.813  0.0000E+00  0.1200E+02
     -3.685  0.0000E+00  0.1200E+02
     -3.558  0.0000E+00  0.1200E+02
     -3.430  0.0000E+00  0.1200E+02
     -3.303  0.0000E+00  0.1200E+02
     -3.175  0.0000E+00  0.1200E+02
     -3.048  0.0000E+00  0.1200E+02
     -2.920  0.0000E+00  0.1200E+02
     -2.793  0.0000E+00  0.1200E+02
     -2.665  0.0000E+00  0.1200E+02
     -2.537  0.0000E+00  0.1200E+02
     -2.410  0.0000E+00  0.1200E+02
     -2.282  0.0000E+00  0.1200E+02
     -2.155  0.0000E+00  0.1200E+02
     -2.027  0.1782E-02  0.1201E+02
     -1.900  0.5541E+00  0.1220E+02
     -1.772  0.6126E-01  0.1277E+02
     -1.645  0.4586E+00  0.1306E+02
     -1.517  0.9189E-01  0.1321E+02
     -1.390  0.2757E+00  0.1334E+02
     -1.262  0.0000E+00  0.1340E+02
     -1.135  0.0000E+00  0.1349E+02
     -1.007  0.0000E+00  0.1358E+02
     -0.880  0.0000E+00  0.1363E+02
     -0.752  0.1696E-03  0.1365E+02
     -0.624  0.9189E-01  0.1373E+02
     -0.497  0.0000E+00  0.1374E+02
     -0.369  0.9838E-04  0.1378E+02
     -0.242  0.9189E-01  0.1384E+02
     -0.114  0.4280E-08  0.1398E+02
      0.013  0.1588E+00  0.1422E+02
      0.141  0.1931E-02  0.1442E+02
      0.268  0.1838E+00  0.1466E+02
      0.396  0.2803E+00  0.1487E+02
      0.523  0.9189E-01  0.1510E+02
      0.651  0.0000E+00  0.1549E+02
      0.778  0.4594E-01  0.1569E+02
      0.906  0.1838E+00  0.1603E+02
      1.033  0.2056E+00  0.1623E+02
      1.161  0.6992E-09  0.1654E+02
      1.289  0.2947E-03  0.1684E+02
      1.416  0.0000E+00  0.1705E+02
      1.544  0.7195E-01  0.1732E+02
      1.671  0.0000E+00  0.1755E+02
      1.799  0.9189E-01  0.1770E+02
      1.926  0.1199E+00  0.1782E+02
      2.054  0.2793E-02  0.1789E+02
      2.181  0.0000E+00  0.1796E+02
      2.309  0.0000E+00  0.1800E+02
      2.436  0.0000E+00  0.1800E+02
      2.564  0.0000E+00  0.1800E+02
      2.691  0.0000E+00  0.1800E+02
      2.819  0.0000E+00  0.1800E+02
      2.946  0.0000E+00  0.1800E+02
      3.074  0.0000E+00  0.1800E+02
      3.202  0.0000E+00  0.1800E+02
      3.329  0.0000E+00  0.1800E+02
      3.457  0.0000E+00  0.1800E+02
      3.584  0.0000E+00  0.1800E+02
      3.712  0.0000E+00  0.1801E+02
      3.839  0.0000E+00  0.1801E+02
      3.967  0.0000E+00  0.1801E+02
      4.094  0.0000E+00  0.1803E+02
      4.222  0.3063E-01  0.1804E+02
      4.349  0.0000E+00  0.1806E+02
      4.477  0.0000E+00  0.1817E+02
      4.604  0.0000E+00  0.1821E+02
      4.732  0.0000E+00  0.1828E+02
      4.859  0.9077E-01  0.1841E+02
      4.987  0.9189E-01  0.1849E+02
      5.115  0.9189E-01  0.1856E+02
      5.242  0.0000E+00  0.1894E+02
      5.370  0.0000E+00  0.1919E+02
      5.497  0.7242E-05  0.1947E+02
      5.625  0.9189E-01  0.1971E+02
      5.752  0.0000E+00  0.1986E+02
      5.880  0.1838E+00  0.2008E+02
      6.007  0.0000E+00  0.2017E+02
      6.135  0.0000E+00  0.2024E+02
      6.262  0.1837E+00  0.2039E+02
      6.390  0.1173E-01  0.2053E+02
      6.517  0.0000E+00  0.2061E+02
      6.645  0.0000E+00  0.2072E+02
      6.772  0.0000E+00  0.2075E+02
      6.900  0.1841E+00  0.2105E+02
      7.028  0.1838E+00  0.2126E+02
      7.155  0.0000E+00  0.2157E+02
      7.283  0.1033E+00  0.2180E+02
      7.410  0.1804E+00  0.2199E+02
      7.538  0.1790E+00  0.2218E+02
      7.665  0.9189E-01  0.2235E+02
      7.793  0.2345E+00  0.2261E+02
      7.920  0.2779E+00  0.2295E+02
      8.048  0.2762E+00  0.2321E+02
      8.175  0.9391E-01  0.2354E+02
      8.303  0.9185E-01  0.2372E+02
      8.430  0.9189E-01  0.2389E+02
      8.558  0.1420E+00  0.2408E+02
      8.685  0.9113E-01  0.2419E+02
      8.813  0.1838E+00  0.2436E+02
      8.941  0.6674E-05  0.2443E+02
      9.068  0.1838E+00  0.2459E+02
      9.196  0.0000E+00  0.2484E+02
      9.323  0.9654E-01  0.2502E+02
      9.451  0.0000E+00  0.2515E+02
      9.578  0.9042E-14  0.2531E+02
      9.706  0.0000E+00  0.2547E+02
      9.833  0.1838E+00  0.2573E+02
      9.961  0.7627E-01  0.2583E+02
     10.088  0.1716E-01  0.2597E+02
     10.216  0.1838E+00  0.2618E+02
     10.343  0.4531E-04  0.2635E+02
     10.471  0.9189E-01  0.2669E+02
     10.598  0.9189E-01  0.2679E+02
     10.726  0.3031E-01  0.2703E+02
     10.854  0.0000E+00  0.2734E+02
     10.981  0.6744E-01  0.2764E+02
     11.109  0.8655E-01  0.2779E+02
     11.236  0.1842E+00  0.2804E+02
     11.364  0.0000E+00  0.2826E+02
     11.491  0.1017E+00  0.2844E+02
     11.619  0.2776E-01  0.2860E+02
     11.746  0.1838E+00  0.2876E+02
     11.874  0.9189E-01  0.2891E+02
     12.001  0.4655E-12  0.2911E+02
     12.129  0.3974E-01  0.2928E+02
     12.256  0.1676E+00  0.2945E+02
     12.384  0.9189E-01  0.2972E+02
     12.511  0.1838E+00  0.2990E+02
     12.639  0.2018E+00  0.3009E+02
     12.767  0.2100E-01  0.3031E+02
     12.894  0.1838E+00  0.3063E+02
     13.022  0.8277E-01  0.3094E+02
     13.149  0.1815E+00  0.3115E+02
     13.277  0.1562E-02  0.3131E+02
     13.404  0.4422E-09  0.3147E+02
     13.532  0.1826E+00  0.3174E+02
     13.659  0.4594E+00  0.3214E+02
     13.787  0.3867E+00  0.3245E+02
     13.914  0.4347E-02  0.3276E+02
     14.042  0.2297E-01  0.3309E+02
     14.169  0.3157E-03  0.3322E+02
     14.297  0.3661E+00  0.3350E+02
     14.424  0.2352E+00  0.3383E+02
     14.552  0.5513E+00  0.3419E+02
     14.679  0.0000E+00  0.3447E+02
     14.807  0.1592E+00  0.3462E+02
     14.935  0.0000E+00  0.3477E+02
     15.062  0.0000E+00  0.3491E+02
     15.190  0.3063E-01  0.3522E+02
     15.317  0.2077E+00  0.3553E+02
     15.445  0.9189E-01  0.3570E+02
     15.572  0.9189E-01  0.3585E+02
     15.700  0.4594E-01  0.3608E+02
     15.827  0.2757E+00  0.3642E+02
     15.955  0.1278E+00  0.3662E+02
     16.082  0.2557E+00  0.3683E+02
     16.210  0.1838E+00  0.3720E+02
     16.337  0.0000E+00  0.3735E+02
     16.465  0.2411E+00  0.3768E+02
     16.592  0.1611E+00  0.3794E+02
     16.720  0.1585E+00  0.3830E+02
     16.848  0.4362E-12  0.3861E+02
     16.975  0.8927E-01  0.3897E+02
     17.103  0.0000E+00  0.3931E+02
     17.230  0.3440E+00  0.3962E+02
     17.358  0.1378E+00  0.3995E+02
     17.485  0.9183E-01  0.4013E+02
     17.613  0.2754E+00  0.4033E+02
     17.740  0.3676E+00  0.4073E+02
     17.868  0.2836E+00  0.4107E+02
     17.995  0.0000E+00  0.4140E+02
     18.123  0.9189E-01  0.4169E+02
     18.250  0.1151E-01  0.4184E+02
     18.378  0.2637E-02  0.4199E+02
     18.505  0.3676E+00  0.4235E+02
     18.633  0.1838E+00  0.4277E+02
     18.761  0.1838E+00  0.4314E+02
     18.888  0.1378E+00  0.4339E+02
     19.016  0.1838E+00  0.4363E+02
     19.143  0.1989E+00  0.4387E+02
     19.271  0.0000E+00  0.4415E+02
     19.398  0.1530E-16  0.4448E+02
     19.526  0.1838E+00  0.4472E+02
     19.653  0.1378E+00  0.4497E+02
     19.781  0.6597E+00  0.4533E+02
     19.908  0.9189E-01  0.4555E+02
     20.036  0.0000E+00  0.4580E+02
     20.163  0.0000E+00  0.4613E+02
     20.291  0.2744E+00  0.4644E+02
     20.418  0.0000E+00  0.4663E+02
     20.546  0.1190E-16  0.4690E+02
     20.674  0.0000E+00  0.4720E+02
     20.801  0.1218E+00  0.4765E+02
     20.929  0.3184E+00  0.4795E+02
     21.056  0.5513E+00  0.4827E+02
     21.184  0.1378E+00  0.4863E+02
     21.311  0.9546E-01  0.4886E+02
     21.439  0.1871E+00  0.4921E+02
     21.566  0.1838E+00  0.4950E+02
     21.694  0.9189E-01  0.4983E+02
     21.821  0.3295E+00  0.5025E+02
     21.949  0.2755E+00  0.5062E+02
     22.076  0.1820E+00  0.5098E+02
     22.204  0.9073E-01  0.5116E+02
     22.331  0.9188E-01  0.5150E+02
     22.459  0.7111E-04  0.5188E+02
     22.587  0.9189E-01  0.5217E+02
     22.714  0.2753E+00  0.5260E+02
     22.842  0.1838E+00  0.5291E+02
     22.969  0.4594E-01  0.5320E+02
     23.097  0.8417E-07  0.5340E+02
     23.224  0.1410E-05  0.5359E+02
     23.352  0.0000E+00  0.5409E+02
     23.479  0.4596E-01  0.5436E+02
     23.607  0.1335E-04  0.5464E+02
     23.734  0.2697E+00  0.5485E+02
     23.862  0.9189E-01  0.5509E+02
     23.989  0.1838E+00  0.5522E+02
     24.117  0.9189E-01  0.5527E+02
     24.244  0.6126E-01  0.5535E+02
     24.372  0.0000E+00  0.5544E+02
     24.500  0.0000E+00  0.5551E+02
     24.627  0.0000E+00  0.5557E+02
     24.755  0.0000E+00  0.5565E+02
     24.882  0.0000E+00  0.5570E+02
     25.010  0.0000E+00  0.5577E+02
     25.137  0.0000E+00  0.5581E+02
     25.265  0.0000E+00  0.5588E+02
     25.392  0.0000E+00  0.5591E+02
     25.520  0.0000E+00  0.5596E+02
     25.647  0.0000E+00  0.5599E+02
     25.775  0.0000E+00  0.5599E+02
     25.902  0.0000E+00  0.5599E+02
     26.030  0.0000E+00  0.5600E+02
     26.157  0.0000E+00  0.5600E+02
     26.285  0.0000E+00  0.5600E+02
     26.413  0.0000E+00  0.5600E+02
     26.540  0.0000E+00  0.5600E+02
     26.668  0.0000E+00  0.5600E+02
     26.795  0.0000E+00  0.5600E+02
     26.923  0.0000E+00  0.5600E+02
     27.050  0.0000E+00  0.5600E+02
     27.178  0.0000E+00  0.5600E+02
     27.305  0.0000E+00  0.5600E+02
     27.433  0.0000E+00  0.5600E+02
     27.560  0.0000E+00  0.5600E+02
     27.688  0.0000E+00  0.5600E+02
