    2    2    1    1
  0.3408459E+02  0.4585296E-09  0.4585300E-09  0.4585305E-09  0.5000000E-15
  1.000000000000000E-004
  CAR 
 unknown system                          
     18    621     28
 
  0.0000000E+00  0.0000000E+00  0.0000000E+00  0.2441406E-03
    1       -8.832941   1.000000
    2       -5.949440   1.000000
    3       -5.949405   1.000000
    4       -5.949370   1.000000
    5       -5.690368   1.000000
    6       -5.690356   1.000000
    7        2.331015   1.000000
    8        2.331078   1.000000
    9        2.331136   1.000000
   10        3.097528   0.000000
   11        6.934533   0.000000
   12        6.934593   0.000000
   13        6.934653   0.000000
   14        9.793440   0.000000
   15       11.685774   0.000000
   16       11.685795   0.000000
   17       12.437469   0.000000
   18       12.437566   0.000000
   19       12.437629   0.000000
   20       14.875749   0.000000
   21       22.021211   0.000000
   22       22.021298   0.000000
   23       22.021360   0.000000
   24       23.064636   0.000000
   25       23.064655   0.000000
   26       23.064695   0.000000
   27       24.197024   0.000000
   28       24.197039   0.000000
 
  0.6250000E-01 -0.9466440E-17 -0.8249097E-19  0.9765625E-03
    1       -8.817900   1.000000
    2       -5.946521   1.000000
    3       -5.946473   1.000000
    4       -5.938383   1.000000
    5       -5.690648   1.000000
    6       -5.690636   1.000000
    7        1.856420   1.000000
    8        2.294269   1.000000
    9        2.294359   1.000000
   10        3.493226   0.000000
   11        6.901674   0.000000
   12        6.992767   0.000000
   13        6.992858   0.000000
   14       10.021010   0.000000
   15       11.371124   0.000000
   16       11.371160   0.000000
   17       12.272908   0.000000
   18       12.873521   0.000000
   19       12.873626   0.000000
   20       15.184081   0.000000
   21       21.419054   0.000000
   22       21.419143   0.000000
   23       22.045147   0.000000
   24       22.252280   0.000000
   25       23.133127   0.000000
   26       23.133141   0.000000
   27       24.157341   0.000000
   28       24.157350   0.000000
 
 -0.3339279E-17  0.7534977E-17  0.6250000E-01  0.9765625E-03
    1       -8.817901   1.000000
    2       -5.946542   1.000000
    3       -5.946493   1.000000
    4       -5.938343   1.000000
    5       -5.690648   1.000000
    6       -5.690635   1.000000
    7        1.856479   1.000000
    8        2.294239   1.000000
    9        2.294335   1.000000
   10        3.493225   0.000000
   11        6.901599   0.000000
   12        6.992800   0.000000
   13        6.992892   0.000000
   14       10.021010   0.000000
   15       11.371153   0.000000
   16       11.371166   0.000000
   17       12.272829   0.000000
   18       12.873565   0.000000
   19       12.873638   0.000000
   20       15.184071   0.000000
   21       21.419097   0.000000
   22       21.419154   0.000000
   23       22.045071   0.000000
   24       22.252242   0.000000
   25       23.133143   0.000000
   26       23.133169   0.000000
   27       24.157348   0.000000
   28       24.157358   0.000000
 
  0.1250000E+00 -0.1893288E-16 -0.1649819E-18  0.9765625E-03
    1       -8.774892   1.000000
    2       -5.938406   1.000000
    3       -5.938361   1.000000
    4       -5.903863   1.000000
    5       -5.691259   1.000000
    6       -5.691247   1.000000
    7        1.108997   1.000000
    8        2.194101   1.000000
    9        2.194202   1.000000
   10        3.976555   0.000000
   11        6.921179   0.000000
   12        7.145559   0.000000
   13        7.145681   0.000000
   14       10.535468   0.000000
   15       10.980277   0.000000
   16       10.980302   0.000000
   17       12.029744   0.000000
   18       13.639151   0.000000
   19       13.639246   0.000000
   20       15.931316   0.000000
   21       20.278382   0.000000
   22       20.278451   0.000000
   23       20.946610   0.000000
   24       22.114788   0.000000
   25       23.268928   0.000000
   26       23.268956   0.000000
   27       24.178974   0.000000
   28       24.178977   0.000000
 
 -0.6678559E-17  0.1506995E-16  0.1250000E+00  0.9765625E-03
    1       -8.774894   1.000000
    2       -5.938429   1.000000
    3       -5.938382   1.000000
    4       -5.903824   1.000000
    5       -5.691258   1.000000
    6       -5.691246   1.000000
    7        1.109067   1.000000
    8        2.194079   1.000000
    9        2.194187   1.000000
   10        3.976535   0.000000
   11        6.921113   0.000000
   12        7.145578   0.000000
   13        7.145699   0.000000
   14       10.535469   0.000000
   15       10.980316   0.000000
   16       10.980326   0.000000
   17       12.029676   0.000000
   18       13.639188   0.000000
   19       13.639248   0.000000
   20       15.931291   0.000000
   21       20.278419   0.000000
   22       20.278453   0.000000
   23       20.946576   0.000000
   24       22.114708   0.000000
   25       23.268930   0.000000
   26       23.268988   0.000000
   27       24.178976   0.000000
   28       24.179005   0.000000
 
  0.1875000E+00 -0.3402381E-16 -0.3243176E-17  0.9765625E-03
    1       -8.710339   1.000000
    2       -5.926732   1.000000
    3       -5.926690   1.000000
    4       -5.842413   1.000000
    5       -5.691543   1.000000
    6       -5.691530   1.000000
    7        0.341960   1.000000
    8        2.054880   1.000000
    9        2.054995   1.000000
   10        4.252205   0.000000
   11        7.176920   0.000000
   12        7.333455   0.000000
   13        7.333625   0.000000
   14       10.757819   0.000000
   15       10.757826   0.000000
   16       10.797608   0.000000
   17       12.295046   0.000000
   18       14.519576   0.000000
   19       14.519668   0.000000
   20       16.910984   0.000000
   21       19.050854   0.000000
   22       19.050914   0.000000
   23       19.572708   0.000000
   24       22.224470   0.000000
   25       23.465374   0.000000
   26       23.465405   0.000000
   27       24.238211   0.000000
   28       24.238218   0.000000
 
 -0.1695673E-16  0.2954383E-16  0.1875000E+00  0.9765625E-03
    1       -8.710345   1.000000
    2       -5.926757   1.000000
    3       -5.926714   1.000000
    4       -5.842375   1.000000
    5       -5.691540   1.000000
    6       -5.691528   1.000000
    7        0.342042   1.000000
    8        2.054869   1.000000
    9        2.054992   1.000000
   10        4.252160   0.000000
   11        7.176866   0.000000
   12        7.333454   0.000000
   13        7.333621   0.000000
   14       10.757854   0.000000
   15       10.757878   0.000000
   16       10.797598   0.000000
   17       12.294999   0.000000
   18       14.519610   0.000000
   19       14.519663   0.000000
   20       16.910937   0.000000
   21       19.050887   0.000000
   22       19.050913   0.000000
   23       19.572686   0.000000
   24       22.224383   0.000000
   25       23.465365   0.000000
   26       23.465429   0.000000
   27       24.238215   0.000000
   28       24.238249   0.000000
 
  0.2500000E+00 -0.3786576E-16 -0.3299639E-18  0.9765625E-03
    1       -8.634242   1.000000
    2       -5.913888   1.000000
    3       -5.913851   1.000000
    4       -5.750956   1.000000
    5       -5.690748   1.000000
    6       -5.690735   1.000000
    7       -0.390320   1.000000
    8        1.903953   1.000000
    9        1.904084   1.000000
   10        4.319300   0.000000
   11        7.482431   0.000000
   12        7.482655   0.000000
   13        7.699151   0.000000
   14       10.633779   0.000000
   15       10.777774   0.000000
   16       10.777820   0.000000
   17       13.210726   0.000000
   18       15.465661   0.000000
   19       15.465751   0.000000
   20       17.859035   0.000000
   21       17.859088   0.000000
   22       17.885226   0.000000
   23       18.391878   0.000000
   24       22.363580   0.000000
   25       23.711416   0.000000
   26       23.711442   0.000000
   27       24.294912   0.000000
   28       24.294926   0.000000
 
 -0.1335712E-16  0.3013991E-16  0.2500000E+00  0.9765625E-03
    1       -8.634251   1.000000
    2       -5.913916   1.000000
    3       -5.913878   1.000000
    4       -5.750920   1.000000
    5       -5.690744   1.000000
    6       -5.690732   1.000000
    7       -0.390224   1.000000
    8        1.903953   1.000000
    9        1.904094   1.000000
   10        4.319234   0.000000
   11        7.482410   0.000000
   12        7.482629   0.000000
   13        7.699103   0.000000
   14       10.633762   0.000000
   15       10.777824   0.000000
   16       10.777878   0.000000
   17       13.210693   0.000000
   18       15.465696   0.000000
   19       15.465746   0.000000
   20       17.859061   0.000000
   21       17.859085   0.000000
   22       17.885063   0.000000
   23       18.391968   0.000000
   24       22.363484   0.000000
   25       23.711392   0.000000
   26       23.711450   0.000000
   27       24.294918   0.000000
   28       24.294950   0.000000
 
  0.3125000E+00 -0.5032788E-16  0.1309841E-16  0.9765625E-03
    1       -8.558517   1.000000
    2       -5.902227   1.000000
    3       -5.902195   1.000000
    4       -5.688543   1.000000
    5       -5.688529   1.000000
    6       -5.631395   1.000000
    7       -1.047974   1.000000
    8        1.764568   1.000000
    9        1.764714   1.000000
   10        4.279712   0.000000
   11        7.549620   0.000000
   12        7.549890   0.000000
   13        8.370576   0.000000
   14       10.444604   0.000000
   15       11.065021   0.000000
   16       11.065098   0.000000
   17       14.273898   0.000000
   18       16.179479   0.000000
   19       16.179521   0.000000
   20       16.992167   0.000000
   21       17.024489   0.000000
   22       17.024494   0.000000
   23       19.370952   0.000000
   24       22.515454   0.000000
   25       23.902182   0.000000
   26       23.902240   0.000000
   27       24.168778   0.000000
   28       24.168842   0.000000
 
 -0.4350441E-16  0.3862243E-16  0.3125000E+00  0.9765625E-03
    1       -8.558530   1.000000
    2       -5.902258   1.000000
    3       -5.902224   1.000000
    4       -5.688538   1.000000
    5       -5.688525   1.000000
    6       -5.631364   1.000000
    7       -1.047864   1.000000
    8        1.764578   1.000000
    9        1.764735   1.000000
   10        4.279633   0.000000
   11        7.549587   0.000000
   12        7.549847   0.000000
   13        8.370524   0.000000
   14       10.444595   0.000000
   15       11.065077   0.000000
   16       11.065155   0.000000
   17       14.273864   0.000000
   18       16.179531   0.000000
   19       16.179564   0.000000
   20       16.992105   0.000000
   21       17.024462   0.000000
   22       17.024473   0.000000
   23       19.370941   0.000000
   24       22.515346   0.000000
   25       23.902130   0.000000
   26       23.902174   0.000000
   27       24.168781   0.000000
   28       24.168839   0.000000
 
  0.3750000E+00 -0.6804762E-16 -0.6486352E-17  0.9765625E-03
    1       -8.495016   1.000000
    2       -5.893461   1.000000
    3       -5.893434   1.000000
    4       -5.685405   1.000000
    5       -5.685389   1.000000
    6       -5.498120   1.000000
    7       -1.586987   1.000000
    8        1.653782   1.000000
    9        1.653940   1.000000
   10        4.215573   0.000000
   11        7.551168   0.000000
   12        7.551464   0.000000
   13        9.002301   0.000000
   14       10.429225   0.000000
   15       11.578038   0.000000
   16       11.578136   0.000000
   17       14.713640   0.000000
   18       15.418735   0.000000
   19       15.418762   0.000000
   20       16.666442   0.000000
   21       17.804044   0.000000
   22       17.804125   0.000000
   23       20.681059   0.000000
   24       22.656584   0.000000
   25       22.923130   0.000000
   26       22.945796   0.000000
   27       22.945897   0.000000
   28       24.295724   0.000000
 
 -0.3391346E-16  0.5908765E-16  0.3750000E+00  0.9765625E-03
    1       -8.495031   1.000000
    2       -5.893494   1.000000
    3       -5.893466   1.000000
    4       -5.685398   1.000000
    5       -5.685385   1.000000
    6       -5.498096   1.000000
    7       -1.586864   1.000000
    8        1.653800   1.000000
    9        1.653969   1.000000
   10        4.215486   0.000000
   11        7.551129   0.000000
   12        7.551412   0.000000
   13        9.002234   0.000000
   14       10.429233   0.000000
   15       11.578093   0.000000
   16       11.578185   0.000000
   17       14.713585   0.000000
   18       15.418795   0.000000
   19       15.418795   0.000000
   20       16.666420   0.000000
   21       17.804040   0.000000
   22       17.804077   0.000000
   23       20.681020   0.000000
   24       22.656465   0.000000
   25       22.923077   0.000000
   26       22.945795   0.000000
   27       22.945850   0.000000
   28       24.295714   0.000000
 
  0.4375000E+00 -0.7758253E-17  0.4668043E-16  0.9765625E-03
    1       -8.453135   1.000000
    2       -5.888227   1.000000
    3       -5.888203   1.000000
    4       -5.682580   1.000000
    5       -5.682564   1.000000
    6       -5.385046   1.000000
    7       -1.951981   1.000000
    8        1.582999   1.000000
    9        1.583164   1.000000
   10        4.166661   0.000000
   11        7.530447   0.000000
   12        7.530755   0.000000
   13        9.342676   0.000000
   14       10.724328   0.000000
   15       12.216067   0.000000
   16       12.216190   0.000000
   17       14.095656   0.000000
   18       14.482615   0.000000
   19       14.482633   0.000000
   20       17.596249   0.000000
   21       18.924033   0.000000
   22       18.924132   0.000000
   23       21.174645   0.000000
   24       21.682210   0.000000
   25       21.682291   0.000000
   26       22.500078   0.000000
   27       22.758663   0.000000
   28       24.474888   0.000000
 
 -0.4156282E-16  0.3455697E-16  0.4375000E+00  0.9765625E-03
    1       -8.453153   1.000000
    2       -5.888261   1.000000
    3       -5.888236   1.000000
    4       -5.682573   1.000000
    5       -5.682559   1.000000
    6       -5.385029   1.000000
    7       -1.951846   1.000000
    8        1.583021   1.000000
    9        1.583199   1.000000
   10        4.166570   0.000000
   11        7.530406   0.000000
   12        7.530700   0.000000
   13        9.342599   0.000000
   14       10.724350   0.000000
   15       12.216115   0.000000
   16       12.216225   0.000000
   17       14.095594   0.000000
   18       14.482670   0.000000
   19       14.482682   0.000000
   20       17.596247   0.000000
   21       18.924018   0.000000
   22       18.924068   0.000000
   23       21.174551   0.000000
   24       21.682240   0.000000
   25       21.682272   0.000000
   26       22.500043   0.000000
   27       22.758534   0.000000
   28       24.474847   0.000000
 
  0.5000000E+00 -0.7573152E-16 -0.6599278E-18  0.4882812E-03
    1       -8.438545   1.000000
    2       -5.886515   1.000000
    3       -5.886493   1.000000
    4       -5.681429   1.000000
    5       -5.681412   1.000000
    6       -5.339079   1.000000
    7       -2.083292   1.000000
    8        1.558696   1.000000
    9        1.558865   1.000000
   10        4.148962   0.000000
   11        7.519919   0.000000
   12        7.520230   0.000000
   13        9.414534   0.000000
   14       10.977325   0.000000
   15       12.637679   0.000000
   16       12.637840   0.000000
   17       13.705562   0.000000
   18       13.960650   0.000000
   19       13.960685   0.000000
   20       18.306349   0.000000
   21       19.755792   0.000000
   22       19.755925   0.000000
   23       20.509662   0.000000
   24       20.799632   0.000000
   25       20.799680   0.000000
   26       22.796230   0.000000
   27       23.677107   0.000000
   28       24.141897   0.000000
 
 -0.2671424E-16  0.6027982E-16  0.5000000E+00  0.4882812E-03
    1       -8.438563   1.000000
    2       -5.886550   1.000000
    3       -5.886526   1.000000
    4       -5.681422   1.000000
    5       -5.681408   1.000000
    6       -5.339066   1.000000
    7       -2.083152   1.000000
    8        1.558721   1.000000
    9        1.558901   1.000000
   10        4.148870   0.000000
   11        7.519876   0.000000
   12        7.520174   0.000000
   13        9.414458   0.000000
   14       10.977351   0.000000
   15       12.637717   0.000000
   16       12.637861   0.000000
   17       13.705497   0.000000
   18       13.960707   0.000000
   19       13.960753   0.000000
   20       18.306371   0.000000
   21       19.755727   0.000000
   22       19.755809   0.000000
   23       20.509543   0.000000
   24       20.799707   0.000000
   25       20.799724   0.000000
   26       22.796097   0.000000
   27       23.676978   0.000000
   28       24.141960   0.000000
 
  0.6250000E-01  0.6250000E-01  0.1623442E-17  0.4882812E-03
    1       -8.812880   1.000000
    2       -5.943882   1.000000
    3       -5.943813   1.000000
    4       -5.938098   1.000000
    5       -5.692257   1.000000
    6       -5.689213   1.000000
    7        1.819046   1.000000
    8        2.226995   1.000000
    9        2.227107   1.000000
   10        3.621947   0.000000
   11        6.742913   0.000000
   12        7.086817   0.000000
   13        7.086934   0.000000
   14       10.087841   0.000000
   15       10.969761   0.000000
   16       11.719748   0.000000
   17       12.544168   0.000000
   18       12.544323   0.000000
   19       12.981031   0.000000
   20       15.316120   0.000000
   21       21.410540   0.000000
   22       21.410618   0.000000
   23       21.491728   0.000000
   24       22.722301   0.000000
   25       22.884533   0.000000
   26       22.884569   0.000000
   27       23.652942   0.000000
   28       25.057779   0.000000
 
 -0.7362467E-17  0.6250000E-01  0.6250000E-01  0.9765625E-03
    1       -8.812880   1.000000
    2       -5.943850   1.000000
    3       -5.943840   1.000000
    4       -5.938103   1.000000
    5       -5.692252   1.000000
    6       -5.689218   1.000000
    7        1.819042   1.000000
    8        2.227041   1.000000
    9        2.227067   1.000000
   10        3.621946   0.000000
   11        6.742916   0.000000
   12        7.086874   0.000000
   13        7.086876   0.000000
   14       10.087840   0.000000
   15       10.969737   0.000000
   16       11.719766   0.000000
   17       12.544246   0.000000
   18       12.544273   0.000000
   19       12.981020   0.000000
   20       15.316105   0.000000
   21       21.410561   0.000000
   22       21.410579   0.000000
   23       21.491710   0.000000
   24       22.722301   0.000000
   25       22.884558   0.000000
   26       22.884595   0.000000
   27       23.652963   0.000000
   28       25.057768   0.000000
 
  0.1250000E+00  0.6250000E-01  0.1805063E-16  0.9765625E-03
    1       -8.779210   1.000000
    2       -5.938197   1.000000
    3       -5.935828   1.000000
    4       -5.912426   1.000000
    5       -5.694079   1.000000
    6       -5.688301   1.000000
    7        1.256410   1.000000
    8        2.102819   1.000000
    9        2.151292   1.000000
   10        4.045843   0.000000
   11        6.627729   0.000000
   12        7.255479   0.000000
   13        7.274191   0.000000
   14       10.392934   0.000000
   15       10.669050   0.000000
   16       11.490964   0.000000
   17       12.375271   0.000000
   18       13.040947   0.000000
   19       13.607257   0.000000
   20       15.951993   0.000000
   21       20.274023   0.000000
   22       20.514216   0.000000
   23       21.523264   0.000000
   24       21.866931   0.000000
   25       22.688881   0.000000
   26       22.949177   0.000000
   27       23.983422   0.000000
   28       25.155306   0.000000
 
 -0.4142438E-17  0.1250000E+00  0.6250000E-01  0.1953125E-02
    1       -8.779210   1.000000
    2       -5.938152   1.000000
    3       -5.935853   1.000000
    4       -5.912444   1.000000
    5       -5.694074   1.000000
    6       -5.688307   1.000000
    7        1.256364   1.000000
    8        2.102773   1.000000
    9        2.151379   1.000000
   10        4.045849   0.000000
   11        6.627744   0.000000
   12        7.255399   0.000000
   13        7.274266   0.000000
   14       10.392935   0.000000
   15       10.669016   0.000000
   16       11.490974   0.000000
   17       12.375275   0.000000
   18       13.041020   0.000000
   19       13.607203   0.000000
   20       15.951979   0.000000
   21       20.273965   0.000000
   22       20.514209   0.000000
   23       21.523289   0.000000
   24       21.866976   0.000000
   25       22.688873   0.000000
   26       22.949194   0.000000
   27       23.983468   0.000000
   28       25.155301   0.000000
 
  0.6250000E-01  0.9072962E-17  0.1250000E+00  0.1953125E-02
    1       -8.779212   1.000000
    2       -5.938191   1.000000
    3       -5.935865   1.000000
    4       -5.912396   1.000000
    5       -5.694083   1.000000
    6       -5.688296   1.000000
    7        1.256449   1.000000
    8        2.102773   1.000000
    9        2.151315   1.000000
   10        4.045837   0.000000
   11        6.627716   0.000000
   12        7.255429   0.000000
   13        7.274240   0.000000
   14       10.392946   0.000000
   15       10.669043   0.000000
   16       11.490993   0.000000
   17       12.375204   0.000000
   18       13.041004   0.000000
   19       13.607251   0.000000
   20       15.951977   0.000000
   21       20.274017   0.000000
   22       20.514221   0.000000
   23       21.523225   0.000000
   24       21.866947   0.000000
   25       22.688893   0.000000
   26       22.949161   0.000000
   27       23.983448   0.000000
   28       25.155309   0.000000
 
  0.6250000E-01  0.6250000E-01 -0.6250000E-01  0.9765625E-03
    1       -8.779211   1.000000
    2       -5.938146   1.000000
    3       -5.935896   1.000000
    4       -5.912410   1.000000
    5       -5.694078   1.000000
    6       -5.688302   1.000000
    7        1.256419   1.000000
    8        2.102710   1.000000
    9        2.151403   1.000000
   10        4.045837   0.000000
   11        6.627729   0.000000
   12        7.255351   0.000000
   13        7.274313   0.000000
   14       10.392956   0.000000
   15       10.669029   0.000000
   16       11.490989   0.000000
   17       12.375184   0.000000
   18       13.041067   0.000000
   19       13.607202   0.000000
   20       15.951990   0.000000
   21       20.273985   0.000000
   22       20.514240   0.000000
   23       21.523248   0.000000
   24       21.866971   0.000000
   25       22.688890   0.000000
   26       22.949119   0.000000
   27       23.983457   0.000000
   28       25.155312   0.000000
 
  0.1875000E+00  0.6250000E-01 -0.3215466E-17  0.9765625E-03
    1       -8.721873   1.000000
    2       -5.928990   1.000000
    3       -5.924102   1.000000
    4       -5.860237   1.000000
    5       -5.695241   1.000000
    6       -5.687528   1.000000
    7        0.544368   1.000000
    8        1.949456   1.000000
    9        2.041040   1.000000
   10        4.380542   0.000000
   11        6.697019   0.000000
   12        7.472435   0.000000
   13        7.495048   0.000000
   14       10.223594   0.000000
   15       11.047588   0.000000
   16       11.229829   0.000000
   17       12.315612   0.000000
   18       13.847270   0.000000
   19       14.478934   0.000000
   20       16.852393   0.000000
   21       19.021207   0.000000
   22       19.280874   0.000000
   23       20.652349   0.000000
   24       21.629881   0.000000
   25       22.683292   0.000000
   26       23.110604   0.000000
   27       24.314569   0.000000
   28       25.184730   0.000000
 
  0.1280322E-16  0.1875000E+00  0.6250000E-01  0.1953125E-02
    1       -8.721871   1.000000
    2       -5.928950   1.000000
    3       -5.924125   1.000000
    4       -5.860250   1.000000
    5       -5.695236   1.000000
    6       -5.687535   1.000000
    7        0.544317   1.000000
    8        1.949400   1.000000
    9        2.041136   1.000000
   10        4.380554   0.000000
   11        6.697028   0.000000
   12        7.472340   0.000000
   13        7.495154   0.000000
   14       10.223589   0.000000
   15       11.047559   0.000000
   16       11.229821   0.000000
   17       12.315632   0.000000
   18       13.847337   0.000000
   19       14.478873   0.000000
   20       16.852381   0.000000
   21       19.021160   0.000000
   22       19.280855   0.000000
   23       20.652392   0.000000
   24       21.629910   0.000000
   25       22.683288   0.000000
   26       23.110619   0.000000
   27       24.314621   0.000000
   28       25.184727   0.000000
 
  0.6250000E-01  0.1876298E-16  0.1875000E+00  0.1953125E-02
    1       -8.721876   1.000000
    2       -5.928992   1.000000
    3       -5.924141   1.000000
    4       -5.860203   1.000000
    5       -5.695244   1.000000
    6       -5.687522   1.000000
    7        0.544428   1.000000
    8        1.949418   1.000000
    9        2.041061   1.000000
   10        4.380514   0.000000
   11        6.697009   0.000000
   12        7.472369   0.000000
   13        7.495087   0.000000
   14       10.223625   0.000000
   15       11.047570   0.000000
   16       11.229868   0.000000
   17       12.315569   0.000000
   18       13.847316   0.000000
   19       14.478918   0.000000
   20       16.852360   0.000000
   21       19.021203   0.000000
   22       19.280867   0.000000
   23       20.652372   0.000000
   24       21.629836   0.000000
   25       22.683305   0.000000
   26       23.110583   0.000000
   27       24.314596   0.000000
   28       25.184732   0.000000
 
  0.6250000E-01  0.6250000E-01 -0.1250000E+00  0.9765625E-03
    1       -8.721875   1.000000
    2       -5.928952   1.000000
    3       -5.924169   1.000000
    4       -5.860212   1.000000
    5       -5.695239   1.000000
    6       -5.687528   1.000000
    7        0.544397   1.000000
    8        1.949346   1.000000
    9        2.041159   1.000000
   10        4.380508   0.000000
   11        6.697018   0.000000
   12        7.472280   0.000000
   13        7.495188   0.000000
   14       10.223642   0.000000
   15       11.047533   0.000000
   16       11.229854   0.000000
   17       12.315583   0.000000
   18       13.847370   0.000000
   19       14.478860   0.000000
   20       16.852378   0.000000
   21       19.021180   0.000000
   22       19.280877   0.000000
   23       20.652393   0.000000
   24       21.629858   0.000000
   25       22.683304   0.000000
   26       23.110536   0.000000
   27       24.314611   0.000000
   28       25.184739   0.000000
 
  0.2500000E+00  0.6250000E-01 -0.3022403E-18  0.9765625E-03
    1       -8.649661   1.000000
    2       -5.917260   1.000000
    3       -5.911003   1.000000
    4       -5.780363   1.000000
    5       -5.693565   1.000000
    6       -5.686351   1.000000
    7       -0.174522   1.000000
    8        1.794695   1.000000
    9        1.889875   1.000000
   10        4.513822   0.000000
   11        6.969959   0.000000
   12        7.672961   0.000000
   13        7.735239   0.000000
   14       10.204804   0.000000
   15       11.062480   0.000000
   16       11.177039   0.000000
   17       12.958416   0.000000
   18       14.757892   0.000000
   19       15.450097   0.000000
   20       17.778103   0.000000
   21       17.797702   0.000000
   22       18.132835   0.000000
   23       19.403952   0.000000
   24       21.769662   0.000000
   25       22.818694   0.000000
   26       23.325658   0.000000
   27       24.453701   0.000000
   28       25.239427   0.000000
 
 -0.3998032E-17  0.2500000E+00  0.6250000E-01  0.1953125E-02
    1       -8.649659   1.000000
    2       -5.917224   1.000000
    3       -5.911022   1.000000
    4       -5.780370   1.000000
    5       -5.693563   1.000000
    6       -5.686360   1.000000
    7       -0.174573   1.000000
    8        1.794628   1.000000
    9        1.889978   1.000000
   10        4.513840   0.000000
   11        6.969924   0.000000
   12        7.673106   0.000000
   13        7.735163   0.000000
   14       10.204808   0.000000
   15       11.062458   0.000000
   16       11.177005   0.000000
   17       12.958431   0.000000
   18       14.757956   0.000000
   19       15.450031   0.000000
   20       17.778061   0.000000
   21       17.797661   0.000000
   22       18.132851   0.000000
   23       19.403985   0.000000
   24       21.769695   0.000000
   25       22.818693   0.000000
   26       23.325674   0.000000
   27       24.453732   0.000000
   28       25.239431   0.000000
 
  0.6250000E-01  0.1767779E-16  0.2500000E+00  0.1953125E-02
    1       -8.649668   1.000000
    2       -5.917267   1.000000
    3       -5.911044   1.000000
    4       -5.780329   1.000000
    5       -5.693566   1.000000
    6       -5.686344   1.000000
    7       -0.174444   1.000000
    8        1.794665   1.000000
    9        1.889907   1.000000
   10        4.513770   0.000000
   11        6.969942   0.000000
   12        7.672994   0.000000
   13        7.735160   0.000000
   14       10.204850   0.000000
   15       11.062454   0.000000
   16       11.177080   0.000000
   17       12.958393   0.000000
   18       14.757934   0.000000
   19       15.450076   0.000000
   20       17.777991   0.000000
   21       17.797698   0.000000
   22       18.132881   0.000000
   23       19.403990   0.000000
   24       21.769610   0.000000
   25       22.818704   0.000000
   26       23.325628   0.000000
   27       24.453712   0.000000
   28       25.239424   0.000000
 
  0.6250000E-01  0.6250000E-01 -0.1875000E+00  0.9765625E-03
    1       -8.649667   1.000000
    2       -5.917233   1.000000
    3       -5.911068   1.000000
    4       -5.780332   1.000000