       N       E                     dE             d eps       ncg     rms          rms(c)
DAV:   1     0.544108968327E+02    0.54411E+02   -0.98791E+03 34776   0.626E+02
DAV:   2    -0.446767741737E+01   -0.58879E+02   -0.58781E+02 47572   0.939E+01
DAV:   3    -0.500556868190E+01   -0.53789E+00   -0.53789E+00 42000   0.136E+01
DAV:   4    -0.500677460453E+01   -0.12059E-02   -0.12059E-02 62720   0.504E-01
DAV:   5    -0.500677489030E+01   -0.28578E-06   -0.28578E-06 42392   0.529E-03    0.560E+00
DAV:   6    -0.479420762026E+01    0.21257E+00   -0.78230E-01 49028   0.419E+00    0.429E+00
DAV:   7    -0.477634551618E+01    0.17862E-01   -0.96350E-02 55888   0.995E-01    0.183E+00
DAV:   8    -0.477702427102E+01   -0.67875E-03   -0.74624E-03 43400   0.531E-01    0.190E-01
DAV:   9    -0.477714515844E+01   -0.12089E-03   -0.83517E-04 54740   0.977E-02    0.420E-02
DAV:  10    -0.477721594043E+01   -0.70782E-04   -0.49375E-05 47488   0.255E-02    0.269E-02
DAV:  11    -0.477724414598E+01   -0.28206E-04   -0.41869E-05 45752   0.174E-02    0.125E-02
DAV:  12    -0.477724522183E+01   -0.10758E-05   -0.58447E-07 57568   0.261E-03    0.250E-03
DAV:  13    -0.477724565377E+01   -0.43195E-06   -0.10374E-06 43428   0.263E-03    0.681E-04
DAV:  14    -0.477724567458E+01   -0.20809E-07   -0.25770E-09 59388   0.251E-04    0.376E-04
DAV:  15    -0.477724572805E+01   -0.53465E-07   -0.19604E-09 44156   0.131E-04    0.113E-04
DAV:  16    -0.477724572357E+01    0.44820E-08   -0.11774E-11 37044   0.134E-05
   1 F= -.47772457E+01 E0= -.47772457E+01  d E =-.500689E-46
 Linear response reoptimize wavefunctions
DAV:   1    -0.477724571713E+01    0.64414E-08   -0.12911E-11 33796   0.959E-06
DAV:   2    -0.477724571713E+01    0.00000E+00   -0.69953E-13 24164   0.137E-06
 Linear response G [H, r] |phi>, progress :
  Direction:   1
       N       E                     dE             d eps       ncg     rms
RMM:   1    -0.802438333199E+02   -0.80244E+02    0.18156E+02 61833   0.366E+01
RMM:   2    -0.834645549057E+02   -0.32207E+01   -0.51439E+00 60544   0.801E+00
RMM:   3    -0.834908058779E+02   -0.26251E-01   -0.14038E-01 62184   0.122E+00
RMM:   4    -0.834928724250E+02   -0.20665E-02   -0.28944E-03 63810   0.184E-01
RMM:   5    -0.834929612272E+02   -0.88802E-04   -0.77853E-05 65005   0.337E-02
RMM:   6    -0.834929641368E+02   -0.29096E-05    0.30790E-05 65210   0.699E-03
RMM:   7    -0.834929674886E+02   -0.33517E-05    0.12586E-06 66563   0.169E-03
RMM:   8    -0.834929676189E+02   -0.13037E-06   -0.10902E-05 66274   0.532E-04
RMM:   9    -0.834929678037E+02   -0.18476E-06   -0.36894E-05 61685   0.293E-04
RMM:  10    -0.834929679203E+02   -0.11662E-06    0.18153E-06 57191   0.240E-04
RMM:  11    -0.834929681076E+02   -0.18724E-06   -0.25430E-06 51845   0.230E-04
RMM:  12    -0.834929680295E+02    0.78042E-07   -0.13240E-05 46299   0.228E-04
 Linear response G [H, r] |phi>, progress :
  Direction:   2
       N       E                     dE             d eps       ncg     rms
RMM:   1    -0.810550112487E+02   -0.81055E+02    0.17395E+02 61879   0.365E+01
RMM:   2    -0.842556786708E+02   -0.32007E+01   -0.51830E+00 60525   0.803E+00
RMM:   3    -0.842829358092E+02   -0.27257E-01   -0.14203E-01 62185   0.123E+00
RMM:   4    -0.842850341831E+02   -0.20984E-02   -0.29235E-03 63773   0.184E-01
RMM:   5    -0.842851252596E+02   -0.91076E-04   -0.82105E-05 64981   0.340E-02
RMM:   6    -0.842851281664E+02   -0.29068E-05    0.29809E-05 65219   0.704E-03
RMM:   7    -0.842851314374E+02   -0.32709E-05    0.35344E-06 66665   0.169E-03
RMM:   8    -0.842851316079E+02   -0.17059E-06   -0.30532E-06 66466   0.519E-04
RMM:   9    -0.842851319111E+02   -0.30314E-06   -0.11598E-05 61905   0.276E-04
RMM:  10    -0.842851318485E+02    0.62625E-07    0.63897E-06 57455   0.225E-04
RMM:  11    -0.842851319392E+02   -0.90744E-07   -0.16526E-07 52188   0.214E-04
RMM:  12    -0.842851319268E+02    0.12393E-07   -0.47600E-06 46581   0.213E-04
 Linear response G [H, r] |phi>, progress :
  Direction:   3
       N       E                     dE             d eps       ncg     rms
RMM:   1    -0.806718137570E+02   -0.80672E+02    0.17749E+02 62138   0.365E+01
RMM:   2    -0.838622430894E+02   -0.31904E+01   -0.51831E+00 60547   0.802E+00
RMM:   3    -0.838871214271E+02   -0.24878E-01   -0.14374E-01 62179   0.123E+00
RMM:   4    -0.838889085453E+02   -0.17871E-02   -0.25018E-03 63857   0.184E-01
RMM:   5    -0.838890354802E+02   -0.12693E-03   -0.39771E-05 64952   0.339E-02
RMM:   6    -0.838890388767E+02   -0.33965E-05    0.66104E-05 65207   0.699E-03
RMM:   7    -0.838890453581E+02   -0.64815E-05    0.83947E-06 66377   0.166E-03
RMM:   8    -0.838890458088E+02   -0.45064E-06    0.77807E-06 65926   0.487E-04
RMM:   9    -0.838890461145E+02   -0.30567E-06    0.94554E-06 61326   0.244E-04
RMM:  10    -0.838890461130E+02    0.14145E-08    0.87131E-06 57014   0.193E-04
RMM:  11    -0.838890461326E+02   -0.19526E-07    0.10639E-06 51569   0.182E-04
RMM:  12    -0.838890462617E+02   -0.12913E-06   -0.17536E-05 46018   0.181E-04
 Linear response to external field (no local field effect), progress :
  Direction:   1
       N       E                     dE             d eps       ncg     rms          rms(c)
RMM:   1    -0.139992692725E+01   -0.13999E+01   -0.60644E+00 86150   0.169E+00
RMM:   2    -0.149786819490E+01   -0.97941E-01   -0.18449E-02 58178   0.346E-01
RMM:   3    -0.149818608671E+01   -0.31789E-03   -0.38066E-04 59858   0.520E-02
RMM:   4    -0.149819318725E+01   -0.71005E-05   -0.13626E-05 61206   0.839E-03
RMM:   5    -0.149819340194E+01   -0.21469E-06   -0.57778E-07 61558   0.187E-03
RMM:   6    -0.149819341465E+01   -0.12717E-07    0.44837E-08 61515   0.382E-04
RMM:   7    -0.149819341584E+01   -0.11865E-08    0.36896E-07 54226   0.943E-05
RMM:   8    -0.149819341588E+01   -0.38611E-10   -0.11031E-07 51015   0.306E-05
RMM:   9    -0.149819341647E+01   -0.58572E-09    0.27952E-07 48820   0.201E-05
RMM:  10    -0.149819341522E+01    0.12408E-08   -0.41637E-08 46675   0.191E-05
 Linear response to external field (no local field effect), progress :
  Direction:   2
       N       E                     dE             d eps       ncg     rms          rms(c)
RMM:   1    -0.146746099256E+01   -0.14675E+01   -0.64358E+00 86252   0.171E+00
RMM:   2    -0.157218316614E+01   -0.10472E+00   -0.19251E-02 58191   0.352E-01
RMM:   3    -0.157251344643E+01   -0.33028E-03   -0.39459E-04 59867   0.530E-02
RMM:   4    -0.157252086245E+01   -0.74160E-05   -0.14166E-05 61244   0.857E-03
RMM:   5    -0.157252108251E+01   -0.22006E-06   -0.62338E-07 61554   0.192E-03
RMM:   6    -0.157252109576E+01   -0.13255E-07   -0.77979E-08 61603   0.391E-04
RMM:   7    -0.157252109696E+01   -0.11942E-08   -0.21195E-07 54243   0.968E-05
RMM:   8    -0.157252109713E+01   -0.17567E-09   -0.13082E-06 51152   0.313E-05
RMM:   9    -0.157252109610E+01    0.10310E-08    0.69518E-08 48946   0.204E-05
 Linear response to external field (no local field effect), progress :
  Direction:   3
       N       E                     dE             d eps       ncg     rms          rms(c)
RMM:   1    -0.144017493200E+01   -0.14402E+01   -0.63149E+00 85919   0.169E+00
RMM:   2    -0.153498420115E+01   -0.94809E-01   -0.18496E-02 58225   0.348E-01
RMM:   3    -0.153534560961E+01   -0.36141E-03   -0.39235E-04 59730   0.525E-02
RMM:   4    -0.153535337492E+01   -0.77653E-05   -0.14256E-05 61137   0.849E-03
RMM:   5    -0.153535361361E+01   -0.23869E-06   -0.62046E-07 61481   0.190E-03
RMM:   6    -0.153535362685E+01   -0.13244E-07   -0.42581E-08 61174   0.386E-04
RMM:   7    -0.153535362856E+01   -0.17074E-08   -0.40761E-08 53872   0.947E-05
 Linear response to external field, progress :
  Direction:   1
       N       E                     dE             d eps       ncg     rms          rms(c)
RMM:   1    -0.143389117078E+01   -0.14339E+01   -0.62521E+00284776   0.170E+00
RMM:   2    -0.153503293722E+01   -0.10114E+00   -0.18870E-02192627   0.349E-01    0.232E+00
RMM:   3    -0.148891186676E+01    0.46121E-01   -0.13874E-02200725   0.408E-01    0.128E+00
RMM:   4    -0.154811285685E+01   -0.59201E-01   -0.19220E-02202718   0.500E-01    0.212E-01
RMM:   5    -0.158025453712E+01   -0.32142E-01   -0.12142E-03206446   0.136E-01    0.528E-02
RMM:   6    -0.158517776153E+01   -0.49232E-02    0.11391E-03213722   0.298E-02    0.230E-02
RMM:   7    -0.158693487053E+01   -0.17571E-02    0.40403E-04212843   0.135E-02    0.382E-03
RMM:   8    -0.158693412813E+01    0.74241E-06    0.34704E-04241276   0.311E-03    0.132E-03
RMM:   9    -0.158702350824E+01   -0.89380E-04    0.48430E-04249741   0.143E-03    0.464E-04
RMM:  10    -0.158702798344E+01   -0.44752E-05    0.47787E-04273241   0.771E-04    0.231E-04
RMM:  11    -0.158701705994E+01    0.10924E-04    0.49259E-04286762   0.520E-04    0.139E-04
RMM:  12    -0.158701840005E+01   -0.13401E-05    0.46868E-04285214   0.490E-04    0.281E-05
RMM:  13    -0.158701646760E+01    0.19325E-05    0.48293E-04278167   0.467E-04    0.151E-05
RMM:  14    -0.158701654430E+01   -0.76704E-07    0.48529E-04265957   0.467E-04    0.475E-06
 Linear response to external field, progress :
  Direction:   2
       N       E                     dE             d eps       ncg     rms          rms(c)
RMM:   1    -0.143350216190E+01   -0.14335E+01   -0.62482E+00284776   0.170E+00
RMM:   2    -0.153502636777E+01   -0.10152E+00   -0.18826E-02192640   0.349E-01    0.232E+00
RMM:   3    -0.148892416766E+01    0.46102E-01   -0.13922E-02200689   0.408E-01    0.128E+00
RMM:   4    -0.154820107713E+01   -0.59277E-01   -0.19656E-02202698   0.500E-01    0.212E-01
RMM:   5    -0.158034701702E+01   -0.32146E-01   -0.20629E-03206432   0.136E-01    0.526E-02
RMM:   6    -0.158528017241E+01   -0.49332E-02   -0.41789E-04212837   0.298E-02    0.231E-02
RMM:   7    -0.158702256700E+01   -0.17424E-02   -0.77218E-05212379   0.136E-02    0.365E-03
RMM:   8    -0.158701844102E+01    0.41260E-05   -0.21195E-05240653   0.309E-03    0.128E-03
RMM:   9    -0.158710569346E+01   -0.87252E-04   -0.29183E-05249468   0.144E-03    0.456E-04
RMM:  10    -0.158710872428E+01   -0.30308E-05   -0.48342E-06272556   0.775E-04    0.241E-04
RMM:  11    -0.158710219805E+01    0.65262E-05    0.17662E-06285735   0.511E-04    0.183E-04
RMM:  12    -0.158710286795E+01   -0.66990E-06   -0.13035E-05280319   0.489E-04    0.295E-05
RMM:  13    -0.158709927992E+01    0.35880E-05   -0.76768E-06279176   0.467E-04    0.110E-05
RMM:  14    -0.158709882148E+01    0.45844E-06   -0.18076E-06266498   0.464E-04    0.165E-06
 Linear response to external field, progress :
  Direction:   3
       N       E                     dE             d eps       ncg     rms          rms(c)
RMM:   1    -0.144017493200E+01   -0.14402E+01   -0.63149E+00 85919   0.169E+00
RMM:   2    -0.153498420115E+01   -0.94809E-01   -0.18496E-02 58225   0.348E-01    0.232E+00
RMM:   3    -0.148890139540E+01    0.46083E-01   -0.13856E-02 59603   0.408E-01    0.128E+00
RMM:   4    -0.154811283486E+01   -0.59211E-01   -0.19200E-02 59768   0.500E-01    0.212E-01
RMM:   5    -0.158025971271E+01   -0.32147E-01   -0.16495E-03 60322   0.136E-01    0.525E-02
RMM:   6    -0.158517436002E+01   -0.49146E-02   -0.46468E-05 60839   0.292E-02    0.235E-02
RMM:   7    -0.158695222108E+01   -0.17779E-02    0.67866E-05 59630   0.136E-02    0.375E-03
RMM:   8    -0.158694840439E+01    0.38167E-05    0.72677E-05 62545   0.275E-03    0.150E-03
RMM:   9    -0.158704062796E+01   -0.92224E-04    0.25399E-04 60208   0.137E-03    0.465E-04
RMM:  10    -0.158704008831E+01    0.53965E-06    0.26767E-04 64406   0.595E-04    0.192E-04
RMM:  11    -0.158703567386E+01    0.44145E-05    0.27653E-04 64091   0.249E-04    0.156E-04
RMM:  12    -0.158703309427E+01    0.25796E-05    0.27318E-04 57677   0.257E-04    0.279E-05
RMM:  13    -0.158702986676E+01    0.32275E-05    0.29379E-04 48019   0.204E-04    0.190E-05
RMM:  14    -0.158703158008E+01   -0.17133E-05    0.27741E-04 32949   0.204E-04    0.204E-06
