 vasp.6.1.2 22Jul20 (build Dec 07 2020 09:43:49) complex                        
  
 executed on             LinuxIFC date 2023.08.19  19:26:20
 running   28 mpi-ranks, with    1 threads/rank
 distrk:  each k-point on   28 cores,    1 groups
 distr:  one band on NCORE=   1 cores,   28 groups


--------------------------------------------------------------------------------------------------------


 INCAR:
 POTCAR:    PAW_PBE Cd 06Sep2000                  
 POTCAR:    PAW_PBE Te 08Apr2002                  
 POTCAR:    PAW_PBE Cd 06Sep2000                  
   VRHFIN =Cd : s2 d10                                                                              
   LEXCH  = PE                                                                                      
   EATOM  =  1293.1815 eV,   95.0462 Ry                                                             
                                                                                                    
   TITEL  = PAW_PBE Cd 06Sep2000                                                                    
   LULTRA =        F    use ultrasoft PP ?                                                          
   IUNSCR =        1    unscreen: 0-lin 1-nonlin 2-no                                               
   RPACOR =    2.000    partial core radius                                                         
   POMASS =  112.411; ZVAL   =   12.000    mass and valenz                                          
   RCORE  =    2.300    outmost cutoff radius                                                       
   RWIGS  =    2.980; RWIGS  =    1.577    wigner-seitz radius (au A)                               
   ENMAX  =  274.336; ENMIN  =  205.752 eV                                                          
   RCLOC  =    2.054    cutoff for local pot                                                        
   LCOR   =        T    correct aug charges                                                         
   LPAW   =        T    paw PP                                                                      
   EAUG   =  456.106                                                                                
   DEXC   =    0.000                                                                                
   RMAX   =    2.358    core radius for proj-oper                                                   
   RAUG   =    1.300    factor for augmentation sphere                                              
   RDEP   =    2.450    radius for radial grids                                                     
   RDEPT  =    1.955    core radius for aug-charge                                                  
                                                                                                    
   Atomic configuration                                                                             
   12 entries                                                                                       
     n  l   j            E        occ.                                                              
     1  0  0.50    -26519.7817   2.0000                                                             
     2  0  0.50     -3936.9612   2.0000                                                             
     2  1  1.50     -3532.2230   6.0000                                                             
     3  0  0.50      -733.7908   2.0000                                                             
     3  1  1.50      -601.0792   6.0000                                                             
     3  2  2.50      -393.5307  10.0000                                                             
     4  0  0.50      -105.8977   2.0000                                                             
     4  1  1.50       -66.9488   6.0000                                                             
     4  2  2.50       -11.7331  10.0000                                                             
     5  0  0.50        -5.6592   2.0000                                                             
     5  1  0.50        -1.3606   0.0000                                                             
     4  3  2.50        -1.3606   0.0000                                                             
   Description                                                                                      
     l       E           TYP  RCUT    TYP  RCUT                                                     
     2    -11.7331479     23  2.300                                                                 
     2    -13.0937305     23  2.300                                                                 
     0     -5.6591502     23  2.300                                                                 
     0     -1.5561433     23  2.300                                                                 
     1     -2.7211652     23  2.300                                                                 
     1      8.3548275     23  2.300                                                                 
  local pseudopotential read in
  partial core-charges read in
  partial kinetic energy density read in
  atomic valenz-charges read in
  non local Contribution for L=           2  read in
    real space projection operators read in
  non local Contribution for L=           2  read in
    real space projection operators read in
  non local Contribution for L=           0  read in
    real space projection operators read in
  non local Contribution for L=           0  read in
    real space projection operators read in
  non local Contribution for L=           1  read in
    real space projection operators read in
  non local Contribution for L=           1  read in
    real space projection operators read in
    PAW grid and wavefunctions read in
 
   number of l-projection  operators is LMAX  =           6
   number of lm-projection operators is LMMAX =          18
 
 POTCAR:    PAW_PBE Te 08Apr2002                  
   VRHFIN =Te: s2p4                                                                                 
   LEXCH  = PE                                                                                      
   EATOM  =   223.2721 eV,   16.4100 Ry                                                             
                                                                                                    
   TITEL  = PAW_PBE Te 08Apr2002                                                                    
   LULTRA =        F    use ultrasoft PP ?                                                          
   IUNSCR =        1    unscreen: 0-lin 1-nonlin 2-no                                               
   RPACOR =    2.200    partial core radius                                                         
   POMASS =  127.600; ZVAL   =    6.000    mass and valenz                                          
   RCORE  =    2.300    outmost cutoff radius                                                       
   RWIGS  =    2.900; RWIGS  =    1.535    wigner-seitz radius (au A)                               
   ENMAX  =  174.982; ENMIN  =  131.236 eV                                                          
   ICORE  =        3    local potential                                                             
   LCOR   =        T    correct aug charges                                                         
   LPAW   =        T    paw PP                                                                      
   EAUG   =  368.792                                                                                
   DEXC   =    0.000                                                                                
   RMAX   =    2.345    core radius for proj-oper                                                   
   RAUG   =    1.300    factor for augmentation sphere                                              
   RDEP   =    2.397    radius for radial grids                                                     
   RDEPT  =    2.174    core radius for aug-charge                                                  
                                                                                                    
   Atomic configuration                                                                             
   13 entries                                                                                       
     n  l   j            E        occ.                                                              
     1  0  0.50    -31621.2075   2.0000                                                             
     2  0  0.50     -4848.7941   2.0000                                                             
     2  1  1.50     -4352.1960   6.0000                                                             
     3  0  0.50      -964.9612   2.0000                                                             
     3  1  1.50      -803.6179   6.0000                                                             
     3  2  2.50      -559.8710  10.0000                                                             
     4  0  0.50      -164.3522   2.0000                                                             
     4  1  1.50      -114.3756   6.0000                                                             
     4  2  2.50       -41.6483  10.0000                                                             
     5  0  0.50       -15.1072   2.0000                                                             
     5  1  0.50        -5.9526   4.0000                                                             
     5  2  1.50        -5.4423   0.0000                                                             
     4  3  2.50        -5.4423   0.0000                                                             
   Description                                                                                      
     l       E           TYP  RCUT    TYP  RCUT                                                     
     0    -15.1072389     23  2.300                                                                 
     0    -16.4678215     23  2.300                                                                 
     1     -5.9526306     23  2.300                                                                 
     1     -2.4873968     23  2.300                                                                 
     2     -5.4423304     23  2.300                                                                 
     3     -1.3605826     23  2.300                                                                 
  local pseudopotential read in
  partial core-charges read in
  partial kinetic energy density read in
  atomic valenz-charges read in
  non local Contribution for L=           0  read in
    real space projection operators read in
  non local Contribution for L=           0  read in
    real space projection operators read in
  non local Contribution for L=           1  read in
    real space projection operators read in
  non local Contribution for L=           1  read in
    real space projection operators read in
  non local Contribution for L=           2  read in
    real space projection operators read in
    PAW grid and wavefunctions read in
 
   number of l-projection  operators is LMAX  =           5
   number of lm-projection operators is LMMAX =          13
 
  PAW_PBE Cd 06Sep2000                  :
 energy of atom  1       EATOM=-1293.1815
 kinetic energy error for atom=    0.0041 (will be added to EATOM!!)
  PAW_PBE Te 08Apr2002                  :
 energy of atom  2       EATOM= -223.2721
 kinetic energy error for atom=    0.0004 (will be added to EATOM!!)
 
 
 POSCAR: Cd Te
  positions in cartesian coordinates
  No initial velocities read in
 exchange correlation table for  LEXCH =        8
   RHO(1)=    0.500       N(1)  =     2000
   RHO(2)=  100.500       N(2)  =     4000
 


--------------------------------------------------------------------------------------------------------


 ion  position               nearest neighbor table
   1  0.000  0.000  1.000-   2 2.81   2 2.81   2 2.81   2 2.81
   2  0.750  0.750  0.750-   1 2.81   1 2.81   1 2.81   1 2.81
 
 -----------------------------------------------------------------------------
|                                                                             |
|           W    W    AA    RRRRR   N    N  II  N    N   GGGG   !!!           |
|           W    W   A  A   R    R  NN   N  II  NN   N  G    G  !!!           |
|           W    W  A    A  R    R  N N  N  II  N N  N  G       !!!           |
|           W WW W  AAAAAA  RRRRR   N  N N  II  N  N N  G  GGG   !            |
|           WW  WW  A    A  R   R   N   NN  II  N   NN  G    G                |
|           W    W  A    A  R    R  N    N  II  N    N   GGGG   !!!           |
|                                                                             |
|     The determination of the symmetry of your systems shows a strong        |
|     dependence on the tolerance parameter SYMPREC. This is often the        |
|     result of "noise" in the structural parameters (lattice vectors         |
|     and/or ionic positions). Set NWRITE=3 for more details.                 |
|                                                                             |
 -----------------------------------------------------------------------------

  LATTYP: Found a face centered cubic cell.
 ALAT       =     6.4846000700
  
  Lattice vectors:
  
 A1 = (  -0.0000017000,   3.2422935200,   3.2422944000)
 A2 = (   3.2422972400,   0.0000022700,   3.2422966200)
 A3 = (   3.2423007900,   3.2422992800,   0.0000031700)


Analysis of symmetry for initial positions (statically):
=====================================================================
 Subroutine PRICEL returns:
 Original cell was already a primitive cell.
 

 Routine SETGRP: Setting up the symmetry group for a 
 face centered cubic supercell.


 Subroutine GETGRP returns: Found  4 space group operations
 (whereof  4 operations were pure point group operations)
 out of a pool of 48 trial point group operations.


The static configuration has the point symmetry C_2v.


Analysis of symmetry for dynamics (positions and initial velocities):
=====================================================================
 Subroutine PRICEL returns:
 Original cell was already a primitive cell.
 

 Routine SETGRP: Setting up the symmetry group for a 
 face centered cubic supercell.


 Subroutine GETGRP returns: Found  4 space group operations
 (whereof  4 operations were pure point group operations)
 out of a pool of 48 trial point group operations.


The dynamic configuration has the point symmetry C_2v.


 Subroutine INISYM returns: Found  4 space group operations
 (whereof  4 operations are pure point group operations),
 and found     1 'primitive' translations


----------------------------------------------------------------------------------------

                                     Primitive cell                                     

  volume of cell :      68.1692

  direct lattice vectors                    reciprocal lattice vectors
    -0.000001700  3.242293520  3.242294400    -0.154211842  0.154211763  0.154211764
     3.242297240  0.000002270  3.242296620     0.154211586 -0.154211808  0.154211847
     3.242300790  3.242299280  0.000003170     0.154211460  0.154211720 -0.154211598

  length of vectors
     4.585296091  4.585300292  4.585304683     0.267102655  0.267102581  0.267102314

  position of ions in fractional coordinates (direct lattice)
     0.000005570  0.000006320  0.999994450
     0.749994430  0.749993680  0.750005550

  ion indices of the primitive-cell ions
   primitive index   ion index
                 1           1
                 2           2

----------------------------------------------------------------------------------------

 
 
 KPOINTS: Automatic mesh                          

Automatic generation of k-mesh.
Space group operators:
 irot       det(A)        alpha          n_x          n_y          n_z        tau_x        tau_y        tau_z
    1     1.000000     0.000000     1.000000     0.000000     0.000000     0.000000     0.000000     0.000000
    2     1.000000   180.000000    -0.000001    -0.000000     1.000000     0.000000     0.000000     0.000000
    3    -1.000000   179.999999     0.707106     0.707108     0.000001     0.000000     0.000000     0.000000
    4    -1.000000   179.999999     0.707107    -0.707107     0.000000     0.000000     0.000000     0.000000
 
 Subroutine IBZKPT returns following result:
 ===========================================
 
 Found    621 irreducible k-points:
 
 Following reciprocal coordinates:
            Coordinates               Weight
  0.000000  0.000000  0.000000      1.000000
  0.062500 -0.000000 -0.000000      4.000000
 -0.000000  0.000000  0.062500      4.000000
  0.125000 -0.000000 -0.000000      4.000000
 -0.000000  0.000000  0.125000      4.000000
  0.187500 -0.000000 -0.000000      4.000000
 -0.000000  0.000000  0.187500      4.000000
  0.250000 -0.000000 -0.000000      4.000000
 -0.000000  0.000000  0.250000      4.000000
  0.312500 -0.000000  0.000000      4.000000
 -0.000000  0.000000  0.312500      4.000000
  0.375000 -0.000000 -0.000000      4.000000
 -0.000000  0.000000  0.375000      4.000000
  0.437500 -0.000000  0.000000      4.000000
 -0.000000  0.000000  0.437500      4.000000
  0.500000 -0.000000 -0.000000      2.000000
 -0.000000  0.000000  0.500000      2.000000
  0.062500  0.062500  0.000000      2.000000
 -0.000000  0.062500  0.062500      4.000000
  0.125000  0.062500  0.000000      4.000000
 -0.000000  0.125000  0.062500      8.000000
  0.062500  0.000000  0.125000      8.000000
  0.062500  0.062500 -0.062500      4.000000
  0.187500  0.062500 -0.000000      4.000000
  0.000000  0.187500  0.062500      8.000000
  0.062500  0.000000  0.187500      8.000000
  0.062500  0.062500 -0.125000      4.000000
  0.250000  0.062500 -0.000000      4.000000
 -0.000000  0.250000  0.062500      8.000000
  0.062500  0.000000  0.250000      8.000000
  0.062500  0.062500 -0.187500      4.000000
  0.312500  0.062500  0.000000      4.000000
  0.000000  0.312500  0.062500      8.000000
  0.062500  0.000000  0.312500      8.000000
  0.062500  0.062500 -0.250000      4.000000
  0.375000  0.062500  0.000000      4.000000
  0.000000  0.375000  0.062500      8.000000
  0.062500  0.000000  0.375000      8.000000
  0.062500  0.062500 -0.312500      4.000000
  0.437500  0.062500  0.000000      4.000000
  0.000000  0.437500  0.062500      8.000000
  0.062500  0.000000  0.437500      8.000000
  0.062500  0.062500 -0.375000      4.000000
  0.500000  0.062500  0.000000      4.000000
  0.000000  0.500000  0.062500      8.000000
  0.062500  0.000000  0.500000      8.000000
  0.062500  0.062500 -0.437500      4.000000
 -0.437500  0.062500 -0.000000      4.000000
  0.000000 -0.437500  0.062500      8.000000
  0.062500 -0.000000 -0.437500      8.000000
  0.062500  0.062500  0.500000      4.000000
 -0.375000  0.062500 -0.000000      4.000000
 -0.000000 -0.375000  0.062500      8.000000
  0.062500 -0.000000 -0.375000      8.000000
  0.062500  0.062500  0.437500      4.000000
 -0.312500  0.062500 -0.000000      4.000000
 -0.000000 -0.312500  0.062500      8.000000
  0.062500 -0.000000 -0.312500      8.000000
  0.062500  0.062500  0.375000      4.000000
 -0.250000  0.062500 -0.000000      4.000000
  0.000000 -0.250000  0.062500      8.000000
  0.062500 -0.000000 -0.250000      8.000000
  0.062500  0.062500  0.312500      4.000000
 -0.187500  0.062500 -0.000000      4.000000
 -0.000000 -0.187500  0.062500      8.000000
  0.062500 -0.000000 -0.187500      8.000000
  0.062500  0.062500  0.250000      4.000000
 -0.125000  0.062500 -0.000000      4.000000
 -0.000000 -0.125000  0.062500      8.000000
  0.062500 -0.000000 -0.125000      8.000000
  0.062500  0.062500  0.187500      4.000000
 -0.062500  0.062500 -0.000000      2.000000
 -0.000000 -0.062500  0.062500      8.000000
  0.062500  0.062500  0.125000      2.000000
  0.125000  0.125000  0.000000      2.000000
 -0.000000  0.125000  0.125000      4.000000
  0.187500  0.125000  0.000000      4.000000
  0.000000  0.187500  0.125000      8.000000
  0.125000  0.000000  0.187500      8.000000
  0.125000  0.125000 -0.062500      4.000000
  0.250000  0.125000  0.000000      4.000000
 -0.000000  0.250000  0.125000      8.000000
  0.125000  0.000000  0.250000      8.000000
  0.125000  0.125000 -0.125000      4.000000
  0.312500  0.125000  0.000000      4.000000
  0.000000  0.312500  0.125000      8.000000
  0.125000  0.000000  0.312500      8.000000
  0.125000  0.125000 -0.187500      4.000000
  0.375000  0.125000 -0.000000      4.000000
  0.000000  0.375000  0.125000      8.000000
  0.125000  0.000000  0.375000      8.000000
  0.125000  0.125000 -0.250000      4.000000
  0.437500  0.125000  0.000000      4.000000
 -0.000000  0.437500  0.125000      8.000000
  0.125000  0.000000  0.437500      8.000000
  0.125000  0.125000 -0.312500      4.000000
  0.500000  0.125000 -0.000000      4.000000
 -0.000000  0.500000  0.125000      8.000000
  0.125000  0.000000  0.500000      8.000000
  0.125000  0.125000 -0.375000      4.000000
 -0.437500  0.125000 -0.000000      4.000000
 -0.000000 -0.437500  0.125000      8.000000
  0.125000 -0.000000 -0.437500      8.000000
  0.125000  0.125000 -0.437500      4.000000
 -0.375000  0.125000 -0.000000      4.000000
 -0.000000 -0.375000  0.125000      8.000000
  0.125000 -0.000000 -0.375000      8.000000
  0.125000  0.125000  0.500000      4.000000
 -0.312500  0.125000 -0.000000      4.000000
 -0.000000 -0.312500  0.125000      8.000000
  0.125000 -0.000000 -0.312500      8.000000
  0.125000  0.125000  0.437500      4.000000
 -0.250000  0.125000 -0.000000      4.000000
 -0.000000 -0.250000  0.125000      8.000000
  0.125000 -0.000000 -0.250000      8.000000
  0.125000  0.125000  0.375000      4.000000
 -0.187500  0.125000 -0.000000      4.000000
 -0.000000 -0.187500  0.125000      8.000000
  0.125000 -0.000000 -0.187500      8.000000
  0.125000  0.125000  0.312500      4.000000
 -0.125000  0.125000 -0.000000      2.000000
 -0.000000 -0.125000  0.125000      8.000000
  0.125000  0.125000  0.250000      2.000000
  0.187500  0.187500  0.000000      2.000000
  0.000000  0.187500  0.187500      4.000000
  0.250000  0.187500  0.000000      4.000000
 -0.000000  0.250000  0.187500      8.000000
  0.187500 -0.000000  0.250000      8.000000
  0.187500  0.187500 -0.062500      4.000000
  0.312500  0.187500  0.000000      4.000000
 -0.000000  0.312500  0.187500      8.000000
  0.187500  0.000000  0.312500      8.000000
  0.187500  0.187500 -0.125000      4.000000
  0.375000  0.187500  0.000000      4.000000
  0.000000  0.375000  0.187500      8.000000
  0.187500  0.000000  0.375000      8.000000
  0.187500  0.187500 -0.187500      4.000000
  0.437500  0.187500  0.000000      4.000000
  0.000000  0.437500  0.187500      8.000000
  0.187500  0.000000  0.437500      8.000000
  0.187500  0.187500 -0.250000      4.000000
  0.500000  0.187500  0.000000      4.000000
  0.000000  0.500000  0.187500      8.000000
  0.187500  0.000000  0.500000      8.000000
  0.187500  0.187500 -0.312500      4.000000
 -0.437500  0.187500  0.000000      4.000000
  0.000000 -0.437500  0.187500      8.000000
  0.187500 -0.000000 -0.437500      8.000000
  0.187500  0.187500 -0.375000      4.000000
 -0.375000  0.187500 -0.000000      4.000000
 -0.000000 -0.375000  0.187500      8.000000
  0.187500 -0.000000 -0.375000      8.000000
  0.187500  0.187500 -0.437500      4.000000
 -0.312500  0.187500 -0.000000      4.000000
  0.000000 -0.312500  0.187500      8.000000
  0.187500 -0.000000 -0.312500      8.000000
  0.187500  0.187500  0.500000      4.000000
 -0.250000  0.187500  0.000000      4.000000
 -0.000000 -0.250000  0.187500      8.000000
  0.187500 -0.000000 -0.250000      8.000000
  0.187500  0.187500  0.437500      4.000000
 -0.187500  0.187500 -0.000000      2.000000
 -0.000000 -0.187500  0.187500      8.000000
  0.187500  0.187500  0.375000      2.000000
  0.250000  0.250000  0.000000      2.000000
 -0.000000  0.250000  0.250000      4.000000
  0.312500  0.250000 -0.000000      4.000000
 -0.000000  0.312500  0.250000      8.000000
  0.250000 -0.000000  0.312500      8.000000
  0.250000  0.250000 -0.062500      4.000000
  0.375000  0.250000  0.000000      4.000000
  0.000000  0.375000  0.250000      8.000000
  0.250000  0.000000  0.375000      8.000000
  0.250000  0.250000 -0.125000      4.000000
  0.437500  0.250000  0.000000      4.000000
  0.000000  0.437500  0.250000      8.000000
  0.250000  0.000000  0.437500      8.000000
  0.250000  0.250000 -0.187500      4.000000
  0.500000  0.250000  0.000000      4.000000
 -0.000000  0.500000  0.250000      8.000000
  0.250000  0.000000  0.500000      8.000000
  0.250000  0.250000 -0.250000      4.000000
 -0.437500  0.250000 -0.000000      4.000000
 -0.000000 -0.437500  0.250000      8.000000
  0.250000 -0.000000 -0.437500      8.000000
  0.250000  0.250000 -0.312500      4.000000
 -0.375000  0.250000 -0.000000      4.000000
 -0.000000 -0.375000  0.250000      8.000000
  0.250000 -0.000000 -0.375000      8.000000
  0.250000  0.250000 -0.375000      4.000000
 -0.312500  0.250000 -0.000000      4.000000
  0.000000 -0.312500  0.250000      8.000000
  0.250000 -0.000000 -0.312500      8.000000
  0.250000  0.250000 -0.437500      4.000000
 -0.250000  0.250000 -0.000000      2.000000
 -0.000000 -0.250000  0.250000      8.000000
  0.250000  0.250000  0.500000      2.000000
  0.312500  0.312500 -0.000000      2.000000
 -0.000000  0.312500  0.312500      4.000000
  0.375000  0.312500  0.000000      4.000000
  0.000000  0.375000  0.312500      8.000000
  0.312500 -0.000000  0.375000      8.000000
  0.312500  0.312500 -0.062500      4.000000
  0.437500  0.312500  0.000000      4.000000
  0.000000  0.437500  0.312500      8.000000
  0.312500  0.000000  0.437500      8.000000
  0.312500  0.312500 -0.125000      4.000000
  0.500000  0.312500  0.000000      4.000000
 -0.000000  0.500000  0.312500      8.000000
  0.312500  0.000000  0.500000      8.000000
  0.312500  0.312500 -0.187500      4.000000
 -0.437500  0.312500 -0.000000      4.000000
 -0.000000 -0.437500  0.312500      8.000000
  0.312500 -0.000000 -0.437500      8.000000
  0.312500  0.312500 -0.250000      4.000000
 -0.375000  0.312500 -0.000000      4.000000
 -0.000000 -0.375000  0.312500      8.000000
  0.312500 -0.000000 -0.375000      8.000000
  0.312500  0.312500 -0.312500      4.000000
 -0.312500  0.312500  0.000000      2.000000
 -0.000000 -0.312500  0.312500      8.000000
  0.312500  0.312500 -0.375000      2.000000
  0.375000  0.375000  0.000000      2.000000
  0.000000  0.375000  0.375000      4.000000
  0.437500  0.375000  0.000000      4.000000
  0.000000  0.437500  0.375000      8.000000
  0.375000 -0.000000  0.437500      8.000000
  0.375000  0.375000 -0.062500      4.000000
  0.500000  0.375000  0.000000      4.000000
 -0.000000  0.500000  0.375000      8.000000
  0.375000 -0.000000  0.500000      8.000000
  0.375000  0.375000 -0.125000      4.000000
 -0.437500  0.375000 -0.000000      4.000000
 -0.000000 -0.437500  0.375000      8.000000
  0.375000 -0.000000 -0.437500      8.000000
  0.375000  0.375000 -0.187500      4.000000
 -0.375000  0.375000 -0.000000      2.000000
 -0.000000 -0.375000  0.375000      8.000000
  0.375000  0.375000 -0.250000      2.000000
  0.437500  0.437500  0.000000      2.000000
 -0.000000  0.437500  0.437500      4.000000
  0.500000  0.437500  0.000000      4.000000
 -0.000000  0.500000  0.437500      8.000000
  0.437500 -0.000000  0.500000      8.000000
  0.437500  0.437500 -0.062500      4.000000
 -0.437500  0.437500 -0.000000      2.000000
 -0.000000 -0.437500  0.437500      8.000000
  0.437500  0.437500 -0.125000      2.000000
  0.500000  0.500000  0.000000      1.000000
 -0.000000  0.500000  0.500000      2.000000
  0.187500  0.125000  0.062500      8.000000
  0.062500  0.187500  0.125000      8.000000
  0.125000  0.062500  0.187500      4.000000
  0.062500 -0.125000 -0.062500      4.000000
  0.250000  0.125000  0.062500      8.000000
  0.062500  0.250000  0.125000      8.000000
  0.125000  0.062500  0.250000      8.000000
  0.125000  0.062500 -0.125000      8.000000
  0.250000  0.125000  0.187500      8.000000
  0.062500 -0.187500 -0.062500      8.000000
  0.312500  0.125000  0.062500      8.000000
  0.062500  0.312500  0.125000      8.000000
  0.125000  0.062500  0.312500      8.000000
  0.125000  0.062500 -0.187500      8.000000
  0.312500  0.187500  0.250000      8.000000
  0.062500 -0.250000 -0.062500      8.000000
  0.375000  0.125000  0.062500      8.000000
  0.062500  0.375000  0.125000      8.000000
  0.125000  0.062500  0.375000      8.000000
  0.125000  0.062500 -0.250000      8.000000
  0.375000  0.250000  0.312500      8.000000
  0.062500 -0.312500 -0.062500      8.000000
  0.437500  0.125000  0.062500      8.000000
  0.062500  0.437500  0.125000      8.000000
  0.125000  0.062500  0.437500      8.000000
  0.125000  0.062500 -0.312500      8.000000
  0.437500  0.312500  0.375000      8.000000
  0.062500 -0.375000 -0.062500      8.000000
  0.500000  0.125000  0.062500      8.000000
  0.062500  0.500000  0.125000      8.000000
  0.125000  0.062500  0.500000      8.000000
  0.125000  0.062500 -0.375000      8.000000
  0.500000  0.375000  0.437500      8.000000
  0.062500 -0.437500 -0.062500      8.000000
 -0.437500  0.125000  0.062500      8.000000
  0.062500 -0.437500  0.125000      4.000000
  0.125000  0.062500 -0.437500      8.000000
 -0.437500  0.437500  0.500000      4.000000
  0.250000  0.187500  0.062500      8.000000
  0.062500  0.250000  0.187500      8.000000
  0.187500  0.062500  0.250000      4.000000
  0.062500 -0.187500 -0.125000      4.000000
  0.312500  0.187500  0.062500      8.000000
  0.062500  0.312500  0.187500      8.000000
  0.187500  0.062500  0.312500      8.000000
  0.187500  0.125000 -0.125000      8.000000
  0.312500  0.125000  0.250000      8.000000
  0.062500 -0.250000 -0.125000      8.000000
  0.375000  0.187500  0.062500      8.000000
  0.062500  0.375000  0.187500      8.000000
  0.187500  0.062500  0.375000      8.000000
  0.187500  0.125000 -0.187500      8.000000
  0.375000  0.187500  0.312500      8.000000
  0.062500 -0.312500 -0.125000      8.000000
  0.437500  0.187500  0.062500      8.000000
  0.062500  0.437500  0.187500      8.000000
  0.187500  0.062500  0.437500      8.000000
  0.187500  0.125000 -0.250000      8.000000
  0.437500  0.250000  0.375000      8.000000
  0.062500 -0.375000 -0.125000      8.000000
  0.500000  0.187500  0.062500      8.000000
  0.062500  0.500000  0.187500      8.000000
  0.187500  0.062500  0.500000      8.000000
  0.187500  0.125000 -0.312500      8.000000
  0.500000  0.312500  0.437500      8.000000
  0.062500 -0.437500 -0.125000      8.000000
 -0.437500  0.187500  0.062500      8.000000
  0.062500 -0.437500  0.187500      8.000000
  0.187500  0.062500 -0.437500      8.000000
  0.187500  0.125000 -0.375000      8.000000
 -0.437500  0.375000  0.500000      8.000000
  0.062500  0.500000 -0.125000      8.000000
 -0.375000  0.187500  0.062500      8.000000
  0.062500 -0.375000  0.187500      8.000000
  0.187500  0.062500 -0.375000      8.000000
  0.187500  0.125000 -0.437500      8.000000
 -0.375000  0.437500 -0.437500      8.000000
  0.062500  0.437500 -0.125000      8.000000
 -0.312500  0.187500  0.062500      8.000000
  0.062500 -0.312500  0.187500      8.000000
  0.187500  0.062500 -0.312500      8.000000
  0.187500  0.125000  0.500000      8.000000
 -0.312500  0.500000 -0.375000      8.000000
  0.062500  0.375000 -0.125000      8.000000
 -0.250000  0.187500  0.062500      8.000000
  0.062500 -0.250000  0.187500      8.000000
  0.187500  0.062500 -0.250000      8.000000
  0.187500  0.125000  0.437500      8.000000
 -0.250000 -0.437500 -0.312500      8.000000
  0.062500  0.312500 -0.125000      8.000000
 -0.187500  0.187500  0.062500      8.000000
  0.062500 -0.187500  0.187500      8.000000
  0.187500  0.062500 -0.187500      8.000000
  0.187500  0.125000  0.375000      8.000000
 -0.187500 -0.375000 -0.250000      8.000000
  0.062500  0.250000 -0.125000      8.000000
 -0.125000  0.187500  0.062500      4.000000
  0.062500 -0.125000  0.187500      8.000000
  0.187500  0.062500 -0.125000      8.000000
  0.187500  0.125000  0.312500      4.000000
  0.312500  0.250000  0.062500      8.000000
  0.062500  0.312500  0.250000      8.000000
  0.250000  0.062500  0.312500      4.000000
  0.062500 -0.250000 -0.187500      4.000000
  0.375000  0.250000  0.062500      8.000000
  0.062500  0.375000  0.250000      8.000000
  0.250000  0.062500  0.375000      8.000000
  0.250000  0.187500 -0.125000      8.000000
  0.375000  0.125000  0.312500      8.000000
  0.062500 -0.312500 -0.187500      8.000000
  0.437500  0.250000  0.062500      8.000000
  0.062500  0.437500  0.250000      8.000000
  0.250000  0.062500  0.437500      8.000000
  0.250000  0.187500 -0.187500      8.000000
  0.437500  0.187500  0.375000      8.000000
  0.062500 -0.375000 -0.187500      8.000000
  0.500000  0.250000  0.062500      8.000000
  0.062500  0.500000  0.250000      8.000000
  0.250000  0.062500  0.500000      8.000000
  0.250000  0.187500 -0.250000      8.000000
  0.500000  0.250000  0.437500      8.000000
  0.062500 -0.437500 -0.187500      8.000000
 -0.437500  0.250000  0.062500      8.000000
  0.062500 -0.437500  0.250000      8.000000
  0.250000  0.062500 -0.437500      8.000000
  0.250000  0.187500 -0.312500      8.000000
 -0.437500  0.312500  0.500000      8.000000
  0.062500  0.500000 -0.187500      8.000000
 -0.375000  0.250000  0.062500      8.000000
  0.062500 -0.375000  0.250000      8.000000
  0.250000  0.062500 -0.375000      8.000000
  0.250000  0.187500 -0.375000      8.000000
 -0.375000  0.375000 -0.437500      8.000000
  0.062500  0.437500 -0.187500      8.000000
 -0.312500  0.250000  0.062500      8.000000
  0.062500 -0.312500  0.250000      8.000000
  0.250000  0.062500 -0.312500      8.000000
  0.250000  0.187500 -0.437500      8.000000
 -0.312500  0.437500 -0.375000      8.000000
  0.062500  0.375000 -0.187500      8.000000
 -0.250000  0.250000  0.062500      8.000000
  0.062500 -0.250000  0.250000      8.000000
  0.250000  0.062500 -0.250000      8.000000
  0.250000  0.187500  0.500000      8.000000
 -0.250000  0.500000 -0.312500      8.000000
  0.062500  0.312500 -0.187500      8.000000
 -0.187500  0.250000  0.062500      4.000000
  0.062500 -0.187500  0.250000      8.000000
  0.250000  0.062500 -0.187500      8.000000
  0.250000  0.187500  0.437500      4.000000
  0.375000  0.312500  0.062500      8.000000
  0.062500  0.375000  0.312500      8.000000
  0.312500  0.062500  0.375000      4.000000
  0.062500 -0.312500 -0.250000      4.000000
  0.437500  0.312500  0.062500      8.000000
  0.062500  0.437500  0.312500      8.000000
  0.312500  0.062500  0.437500      8.000000
  0.312500  0.250000 -0.125000      8.000000
  0.437500  0.125000  0.375000      8.000000
  0.062500 -0.375000 -0.250000      8.000000
  0.500000  0.312500  0.062500      8.000000
  0.062500  0.500000  0.312500      8.000000
  0.312500  0.062500  0.500000      8.000000
  0.312500  0.250000 -0.187500      8.000000
  0.500000  0.187500  0.437500      8.000000
  0.062500 -0.437500 -0.250000      8.000000
 -0.437500  0.312500  0.062500      8.000000
  0.062500 -0.437500  0.312500      8.000000
  0.312500  0.062500 -0.437500      8.000000
  0.312500  0.250000 -0.250000      8.000000
 -0.437500  0.250000  0.500000      8.000000
  0.062500  0.500000 -0.250000      8.000000
 -0.375000  0.312500  0.062500      8.000000
  0.062500 -0.375000  0.312500      8.000000
  0.312500  0.062500 -0.375000      8.000000
  0.312500  0.250000 -0.312500      8.000000
 -0.375000  0.312500 -0.437500      8.000000
  0.062500  0.437500 -0.250000      8.000000
 -0.312500  0.312500  0.062500      8.000000
  0.062500 -0.312500  0.312500      8.000000
  0.312500  0.062500 -0.312500      8.000000
  0.312500  0.250000 -0.375000      8.000000
 -0.312500  0.375000 -0.375000      8.000000
  0.062500  0.375000 -0.250000      8.000000
 -0.250000  0.312500  0.062500      4.000000
  0.062500 -0.250000  0.312500      8.000000
  0.312500  0.062500 -0.250000      8.000000
  0.312500  0.250000 -0.437500      4.000000
  0.437500  0.375000  0.062500      8.000000
  0.062500  0.437500  0.375000      8.000000
  0.375000  0.062500  0.437500      4.000000
  0.062500 -0.375000 -0.312500      4.000000
  0.500000  0.375000  0.062500      8.000000
  0.062500  0.500000  0.375000      8.000000
  0.375000  0.062500  0.500000      8.000000
  0.375000  0.312500 -0.125000      8.000000
  0.500000  0.125000  0.437500      8.000000
  0.062500 -0.437500 -0.312500      8.000000
 -0.437500  0.375000  0.062500      8.000000
  0.062500 -0.437500  0.375000      8.000000
  0.375000  0.062500 -0.437500      8.000000
  0.375000  0.312500 -0.187500      8.000000
 -0.437500  0.187500  0.500000      8.000000
  0.062500  0.500000 -0.312500      8.000000
 -0.375000  0.375000  0.062500      8.000000
  0.062500 -0.375000  0.375000      8.000000
  0.375000  0.062500 -0.375000      8.000000
  0.375000  0.312500 -0.250000      8.000000
 -0.375000  0.250000 -0.437500      8.000000
  0.062500  0.437500 -0.312500      8.000000
 -0.312500  0.375000  0.062500      4.000000
  0.062500 -0.312500  0.375000      8.000000
  0.375000  0.062500 -0.312500      8.000000
  0.375000  0.312500 -0.312500      4.000000
  0.500000  0.437500  0.062500      8.000000
  0.062500  0.500000  0.437500      8.000000
  0.437500  0.062500  0.500000      4.000000
  0.062500 -0.437500 -0.375000      4.000000
 -0.437500  0.437500  0.062500      8.000000
  0.062500 -0.437500  0.437500      8.000000
  0.437500  0.062500 -0.437500      8.000000
  0.437500  0.375000 -0.125000      8.000000
 -0.437500  0.125000  0.500000      8.000000
  0.062500  0.500000 -0.375000      8.000000
 -0.375000  0.437500  0.062500      4.000000
  0.062500 -0.375000  0.437500      8.000000
  0.437500  0.062500 -0.375000      8.000000
  0.437500  0.375000 -0.187500      4.000000
 -0.437500  0.500000  0.062500      4.000000
  0.062500 -0.437500  0.500000      4.000000
  0.500000  0.062500 -0.437500      4.000000
  0.375000  0.250000  0.125000      8.000000
  0.125000  0.375000  0.250000      8.000000
  0.250000  0.125000  0.375000      4.000000
  0.125000 -0.250000 -0.125000      4.000000
  0.437500  0.250000  0.125000      8.000000
  0.125000  0.437500  0.250000      8.000000
  0.250000  0.125000  0.437500      8.000000
  0.250000  0.125000 -0.187500      8.000000
  0.437500  0.187500  0.312500      8.000000
  0.125000 -0.312500 -0.125000      8.000000
  0.500000  0.250000  0.125000      8.000000
  0.125000  0.500000  0.250000      8.000000
  0.250000  0.125000  0.500000      8.000000
  0.250000  0.125000 -0.250000      8.000000
  0.500000  0.250000  0.375000      8.000000
  0.125000 -0.375000 -0.125000      8.000000
 -0.437500  0.250000  0.125000      8.000000
  0.125000 -0.437500  0.250000      8.000000
  0.250000  0.125000 -0.437500      8.000000
  0.250000  0.125000 -0.312500      8.000000
 -0.437500  0.312500  0.437500      8.000000
  0.125000 -0.437500 -0.125000      8.000000
 -0.375000  0.250000  0.125000      8.000000
  0.125000 -0.375000  0.250000      4.000000
  0.250000  0.125000 -0.375000      8.000000
 -0.375000  0.375000  0.500000      4.000000
  0.437500  0.312500  0.125000      8.000000
  0.125000  0.437500  0.312500      8.000000
  0.312500  0.125000  0.437500      4.000000
  0.125000 -0.312500 -0.187500      4.000000
  0.500000  0.312500  0.125000      8.000000
  0.125000  0.500000  0.312500      8.000000
  0.312500  0.125000  0.500000      8.000000
  0.312500  0.187500 -0.187500      8.000000
  0.500000  0.187500  0.375000      8.000000
  0.125000 -0.375000 -0.187500      8.000000
 -0.437500  0.312500  0.125000      8.000000
  0.125000 -0.437500  0.312500      8.000000
  0.312500  0.125000 -0.437500      8.000000
  0.312500  0.187500 -0.250000      8.000000
 -0.437500  0.250000  0.437500      8.000000
  0.125000 -0.437500 -0.187500      8.000000
 -0.375000  0.312500  0.125000      8.000000
  0.125000 -0.375000  0.312500      8.000000
  0.312500  0.125000 -0.375000      8.000000
  0.312500  0.187500 -0.312500      8.000000
 -0.375000  0.312500  0.500000      8.000000
  0.125000  0.500000 -0.187500      8.000000
 -0.312500  0.312500  0.125000      8.000000
  0.125000 -0.312500  0.312500      8.000000
  0.312500  0.125000 -0.312500      8.000000
  0.312500  0.187500 -0.375000      8.000000
 -0.312500  0.375000 -0.437500      8.000000
  0.125000  0.437500 -0.187500      8.000000
 -0.250000  0.312500  0.125000      8.000000
  0.125000 -0.250000  0.312500      8.000000
  0.312500  0.125000 -0.250000      8.000000
  0.312500  0.187500 -0.437500      8.000000
 -0.250000  0.437500 -0.375000      8.000000
  0.125000  0.375000 -0.187500      8.000000
 -0.187500  0.312500  0.125000      4.000000
  0.125000 -0.187500  0.312500      8.000000
  0.312500  0.125000 -0.187500      8.000000
  0.312500  0.187500  0.500000      4.000000
  0.500000  0.375000  0.125000      8.000000
  0.125000  0.500000  0.375000      8.000000
  0.375000  0.125000  0.500000      4.000000
  0.125000 -0.375000 -0.250000      4.000000
 -0.437500  0.375000  0.125000      8.000000
  0.125000 -0.437500  0.375000      8.000000
  0.375000  0.125000 -0.437500      8.000000
  0.375000  0.250000 -0.187500      8.000000
 -0.437500  0.187500  0.437500      8.000000
  0.125000 -0.437500 -0.250000      8.000000
 -0.375000  0.375000  0.125000      8.000000
  0.125000 -0.375000  0.375000      8.000000
  0.375000  0.125000 -0.375000      8.000000
  0.375000  0.250000 -0.250000      8.000000
 -0.375000  0.250000  0.500000      8.000000
  0.125000  0.500000 -0.250000      8.000000
 -0.312500  0.375000  0.125000      8.000000
  0.125000 -0.312500  0.375000      8.000000
  0.375000  0.125000 -0.312500      8.000000
  0.375000  0.250000 -0.312500      8.000000
 -0.312500  0.312500 -0.437500      8.000000
  0.125000  0.437500 -0.250000      8.000000
 -0.250000  0.375000  0.125000      4.000000
  0.125000 -0.250000  0.375000      8.000000
  0.375000  0.125000 -0.250000      8.000000
  0.375000  0.250000 -0.375000      4.000000
 -0.437500  0.437500  0.125000      8.000000
  0.125000 -0.437500  0.437500      8.000000
  0.437500  0.125000 -0.437500      4.000000
  0.125000 -0.437500 -0.312500      4.000000
 -0.375000  0.437500  0.125000      8.000000
  0.125000 -0.375000  0.437500      8.000000
  0.437500  0.125000 -0.375000      8.000000
  0.437500  0.312500 -0.187500      8.000000
 -0.375000  0.187500  0.500000      8.000000
  0.125000  0.500000 -0.312500      8.000000
 -0.312500  0.437500  0.125000      4.000000
  0.125000 -0.312500  0.437500      8.000000
  0.437500  0.125000 -0.312500      8.000000
  0.437500  0.312500 -0.250000      4.000000
 -0.375000  0.500000  0.125000      4.000000
  0.125000 -0.375000  0.500000      4.000000
  0.500000  0.125000 -0.375000      4.000000
 -0.437500  0.375000  0.187500      8.000000
  0.187500 -0.437500  0.375000      8.000000
  0.375000  0.187500 -0.437500      4.000000
  0.187500 -0.375000 -0.187500      4.000000
 -0.375000  0.375000  0.187500      8.000000
  0.187500 -0.375000  0.375000      8.000000
  0.375000  0.187500 -0.375000      8.000000
  0.375000  0.187500 -0.250000      8.000000
 -0.375000  0.250000  0.437500      8.000000
  0.187500 -0.437500 -0.187500      8.000000
 -0.312500  0.375000  0.187500      8.000000
  0.187500 -0.312500  0.375000      4.000000
  0.375000  0.187500 -0.312500      8.000000
 -0.312500  0.312500  0.500000      4.000000
 -0.375000  0.437500  0.187500      8.000000
  0.187500 -0.375000  0.437500      8.000000
  0.437500  0.187500 -0.375000      4.000000
  0.187500 -0.437500 -0.250000      4.000000
 -0.312500  0.437500  0.187500      8.000000
  0.187500 -0.312500  0.437500      8.000000
  0.437500  0.187500 -0.312500      8.000000
  0.437500  0.250000 -0.250000      8.000000
 -0.312500  0.250000  0.500000      8.000000
  0.187500  0.500000 -0.250000      8.000000
 -0.250000  0.437500  0.187500      4.000000
  0.187500 -0.250000  0.437500      8.000000
  0.437500  0.187500 -0.250000      8.000000
  0.437500  0.250000 -0.312500      4.000000
 -0.312500  0.500000  0.187500      4.000000
  0.187500 -0.312500  0.500000      4.000000
  0.500000  0.187500 -0.312500      4.000000
 -0.250000  0.500000  0.250000      4.000000
  0.250000 -0.250000  0.500000      2.000000
 
 Following cartesian coordinates:
            Coordinates               Weight
  0.000000  0.000000  0.000000      1.000000
 -0.009638  0.009638  0.009638      4.000000
  0.009638  0.009638 -0.009638      4.000000
 -0.019276  0.019276  0.019276      4.000000
  0.019276  0.019276 -0.019276      4.000000
 -0.028915  0.028915  0.028915      4.000000
  0.028915  0.028915 -0.028915      4.000000
 -0.038553  0.038553  0.038553      4.000000
  0.038553  0.038553 -0.038553      4.000000
 -0.048191  0.048191  0.048191      4.000000
  0.048191  0.048191 -0.048191      4.000000
 -0.057829  0.057829  0.057829      4.000000
  0.057829  0.057829 -0.057829      4.000000
 -0.067468  0.067468  0.067468      4.000000
  0.067468  0.067468 -0.067468      4.000000
 -0.077106  0.077106  0.077106      2.000000
  0.077106  0.077106 -0.077106      2.000000
 -0.000000 -0.000000  0.019276      2.000000
  0.019276 -0.000000  0.000000      4.000000
 -0.009638  0.009638  0.028915      4.000000
  0.028915 -0.009638  0.009638      8.000000
  0.009638  0.028915 -0.009638      8.000000
 -0.009638 -0.009638  0.028915      4.000000
 -0.019276  0.019276  0.038553      4.000000
  0.038553 -0.019276  0.019276      8.000000
  0.019276  0.038553 -0.019276      8.000000
 -0.019276 -0.019276  0.038553      4.000000
 -0.028915  0.028915  0.048191      4.000000
  0.048191 -0.028915  0.028915      8.000000
  0.028915  0.048191 -0.028915      8.000000
 -0.028915 -0.028915  0.048191      4.000000
 -0.038553  0.038553  0.057829      4.000000
  0.057829 -0.038553  0.038553      8.000000
  0.038553  0.057829 -0.038553      8.000000
 -0.038553 -0.038553  0.057829      4.000000
 -0.048191  0.048191  0.067468      4.000000
  0.067468 -0.048191  0.048191      8.000000
  0.048191  0.067468 -0.048191      8.000000
 -0.048191 -0.048191  0.067468      4.000000
 -0.057829  0.057829  0.077106      4.000000
  0.077106 -0.057829  0.057829      8.000000
  0.057829  0.077106 -0.057829      8.000000
 -0.057829 -0.057829  0.077106      4.000000
 -0.067468  0.067468  0.086744      4.000000
  0.086744 -0.067468  0.067468      8.000000
  0.067467  0.086744 -0.067468      8.000000
 -0.067468 -0.067468  0.086744      4.000000
  0.077106 -0.077106 -0.057829      4.000000
 -0.057829  0.077106 -0.077106      8.000000
 -0.077106 -0.057829  0.077106      8.000000
  0.077106  0.077106 -0.057829      4.000000
  0.067468 -0.067468 -0.048191      4.000000
 -0.048191  0.067468 -0.067468      8.000000
 -0.067468 -0.048191  0.067468      8.000000
  0.067467  0.067468 -0.048191      4.000000
  0.057829 -0.057829 -0.038553      4.000000
 -0.038553  0.057829 -0.057829      8.000000
 -0.057829 -0.038553  0.057829      8.000000
  0.057829  0.057829 -0.038553      4.000000
  0.048191 -0.048191 -0.028915      4.000000
 -0.028915  0.048191 -0.048191      8.000000
 -0.048191 -0.028915  0.048191      8.000000
  0.048191  0.048191 -0.028915      4.000000
  0.038553 -0.038553 -0.019276      4.000000
 -0.019276  0.038553 -0.038553      8.000000
 -0.038553 -0.019276  0.038553      8.000000
  0.038553  0.038553 -0.019276      4.000000
  0.028915 -0.028915 -0.009638      4.000000
 -0.009638  0.028915 -0.028915      8.000000
 -0.028915 -0.009638  0.028915      8.000000
  0.028915  0.028915 -0.009638      4.000000
  0.019276 -0.019276  0.000000      2.000000
 -0.000000  0.019276 -0.019276      8.000000
  0.019276  0.019276  0.000000      2.000000
 -0.000000 -0.000000  0.038553      2.000000
  0.038553 -0.000000  0.000000      4.000000
 -0.009638  0.009638  0.048191      4.000000
  0.048191 -0.009638  0.009638      8.000000
  0.009638  0.048191 -0.009638      8.000000
 -0.009638 -0.009638  0.048191      4.000000
 -0.019277  0.019276  0.057829      4.000000
  0.057829 -0.019276  0.019277      8.000000
  0.019276  0.057829 -0.019276      8.000000
 -0.019276 -0.019276  0.057829      4.000000
 -0.028915  0.028915  0.067468      4.000000
  0.067468 -0.028915  0.028915      8.000000
  0.028915  0.067468 -0.028915      8.000000
 -0.028915 -0.028915  0.067468      4.000000
 -0.038553  0.038553  0.077106      4.000000
  0.077106 -0.038553  0.038553      8.000000
  0.038553  0.077106 -0.038553      8.000000
 -0.038553 -0.038553  0.077106      4.000000
 -0.048191  0.048191  0.086744      4.000000
  0.086744 -0.048191  0.048191      8.000000
  0.048191  0.086744 -0.048191      8.000000
 -0.048191 -0.048191  0.086744      4.000000
 -0.057829  0.057829  0.096382      4.000000
  0.096382 -0.057829  0.057829      8.000000
  0.057829  0.096382 -0.057829      8.000000
 -0.057829 -0.057829  0.096382      4.000000
  0.086744 -0.086744 -0.048191      4.000000
 -0.048191  0.086744 -0.086744      8.000000
 -0.086744 -0.048191  0.086744      8.000000
 -0.067468 -0.067468  0.106021      4.000000
  0.077106 -0.077106 -0.038553      4.000000
 -0.038553  0.077106 -0.077106      8.000000
 -0.077106 -0.038553  0.077106      8.000000
  0.077106  0.077106 -0.038553      4.000000
  0.067468 -0.067468 -0.028915      4.000000
 -0.028915  0.067468 -0.067468      8.000000
 -0.067468 -0.028915  0.067468      8.000000
  0.067467  0.067468 -0.028915      4.000000
  0.057829 -0.057829 -0.019276      4.000000
 -0.019276  0.057829 -0.057829      8.000000
 -0.057829 -0.019276  0.057829      8.000000
  0.057829  0.057829 -0.019276      4.000000
  0.048191 -0.048191 -0.009638      4.000000
 -0.009638  0.048191 -0.048191      8.000000
 -0.048191 -0.009638  0.048191      8.000000
  0.048191  0.048191 -0.009638      4.000000
  0.038553 -0.038553  0.000000      2.000000
 -0.000000  0.038553 -0.038553      8.000000
  0.038553  0.038553  0.000000      2.000000
 -0.000000 -0.000000  0.057829      2.000000
  0.057829 -0.000000  0.000000      4.000000
 -0.009638  0.009638  0.067468      4.000000
  0.067468 -0.009638  0.009638      8.000000
  0.009638  0.067468 -0.009638      8.000000
 -0.009638 -0.009638  0.067468      4.000000
 -0.019277  0.019276  0.077106      4.000000
  0.077106 -0.019276  0.019277      8.000000
  0.019276  0.077106 -0.019276      8.000000
 -0.019276 -0.019276  0.077106      4.000000
 -0.028915  0.028915  0.086744      4.000000
  0.086744 -0.028915  0.028915      8.000000
  0.028915  0.086744 -0.028915      8.000000
 -0.028915 -0.028915  0.086744      4.000000
 -0.038553  0.038553  0.096382      4.000000
  0.096382 -0.038553  0.038553      8.000000
  0.038553  0.096382 -0.038553      8.000000
 -0.038553 -0.038553  0.096382      4.000000
 -0.048191  0.048191  0.106021      4.000000
  0.106020 -0.048191  0.048191      8.000000
  0.048191  0.106021 -0.048191      8.000000
 -0.048191 -0.048191  0.106021      4.000000
  0.096382 -0.096382 -0.038553      4.000000
 -0.038553  0.096382 -0.096382      8.000000
 -0.096382 -0.038553  0.096382      8.000000
 -0.057829 -0.057829  0.115659      4.000000
  0.086744 -0.086744 -0.028915      4.000000
 -0.028915  0.086744 -0.086744      8.000000
 -0.086744 -0.028915  0.086744      8.000000
 -0.067468 -0.067468  0.125297      4.000000
  0.077106 -0.077106 -0.019276      4.000000
 -0.019276  0.077106 -0.077106      8.000000
 -0.077106 -0.019276  0.077106      8.000000
  0.077106  0.077106 -0.019276      4.000000
  0.067468 -0.067468 -0.009638      4.000000
 -0.009638  0.067468 -0.067468      8.000000
 -0.067468 -0.009638  0.067468      8.000000
  0.067467  0.067468 -0.009638      4.000000
  0.057829 -0.057829  0.000000      2.000000
 -0.000000  0.057829 -0.057829      8.000000
  0.057829  0.057829  0.000000      2.000000
 -0.000000 -0.000000  0.077106      2.000000
  0.077106 -0.000000  0.000000      4.000000
 -0.009638  0.009638  0.086744      4.000000
  0.086744 -0.009638  0.009638      8.000000
  0.009638  0.086744 -0.009638      8.000000
 -0.009638 -0.009638  0.086744      4.000000
 -0.019277  0.019276  0.096382      4.000000
  0.096382 -0.019276  0.019277      8.000000
  0.019276  0.096382 -0.019276      8.000000
 -0.019276 -0.019276  0.096382      4.000000
 -0.028915  0.028915  0.106021      4.000000
  0.106020 -0.028915  0.028915      8.000000
  0.028915  0.106021 -0.028915      8.000000
 -0.028915 -0.028915  0.106021      4.000000
 -0.038553  0.038553  0.115659      4.000000
  0.115659 -0.038553  0.038553      8.000000
  0.038553  0.115659 -0.038553      8.000000
 -0.038553 -0.038553  0.115659      4.000000
  0.106021 -0.106021 -0.028915      4.000000
 -0.028915  0.106021 -0.106021      8.000000
 -0.106020 -0.028915  0.106021      8.000000
 -0.048191 -0.048191  0.125297      4.000000
  0.096382 -0.096382 -0.019276      4.000000
 -0.019276  0.096382 -0.096382      8.000000
 -0.096382 -0.019276  0.096382      8.000000
 -0.057829 -0.057829  0.134935      4.000000
  0.086744 -0.086744 -0.009638      4.000000
 -0.009638  0.086744 -0.086744      8.000000
 -0.086744 -0.009638  0.086744      8.000000
 -0.067468 -0.067468  0.144573      4.000000
  0.077106 -0.077106  0.000000      2.000000
 -0.000000  0.077106 -0.077106      8.000000
  0.077106  0.077106  0.000000      2.000000
 -0.000000 -0.000000  0.096382      2.000000
  0.096382 -0.000000  0.000000      4.000000
 -0.009638  0.009638  0.106021      4.000000
  0.106020 -0.009638  0.009638      8.000000
  0.009638  0.106021 -0.009638      8.000000
 -0.009638 -0.009638  0.106021      4.000000
 -0.019277  0.019276  0.115659      4.000000
  0.115659 -0.019277  0.019277      8.000000
  0.019276  0.115659 -0.019276      8.000000
 -0.019277 -0.019276  0.115659      4.000000
 -0.028915  0.028915  0.125297      4.000000
  0.125297 -0.028915  0.028915      8.000000
  0.028915  0.125297 -0.028915      8.000000
 -0.028915 -0.028915  0.125297      4.000000
  0.115659 -0.115659 -0.019276      4.000000
 -0.019276  0.115659 -0.115659      8.000000
 -0.115659 -0.019276  0.115659      8.000000
 -0.038553 -0.038553  0.134935      4.000000
  0.106021 -0.106021 -0.009638      4.000000
 -0.009638  0.106021 -0.106021      8.000000
 -0.106020 -0.009638  0.106021      8.000000
 -0.048191 -0.048191  0.144574      4.000000
  0.096382 -0.096382  0.000000      2.000000
 -0.000000  0.096382 -0.096382      8.000000
 -0.057829 -0.057829  0.154212      2.000000
 -0.000000 -0.000000  0.115659      2.000000
  0.115659 -0.000000  0.000000      4.000000
 -0.009638  0.009638  0.125297      4.000000
  0.125297 -0.009638  0.009638      8.000000
  0.009638  0.125297 -0.009638      8.000000
 -0.009638 -0.009638  0.125297      4.000000
 -0.019277  0.019276  0.134935      4.000000
  0.134935 -0.019277  0.019277      8.000000
  0.019276  0.134935 -0.019276      8.000000
 -0.019277 -0.019276  0.134935      4.000000
  0.125297 -0.125297 -0.009638      4.000000
 -0.009638  0.125297 -0.125297      8.000000
 -0.125297 -0.009638  0.125297      8.000000
 -0.028915 -0.028915  0.144574      4.000000
  0.115659 -0.115659  0.000000      2.000000
 -0.000000  0.115659 -0.115659      8.000000
 -0.038553 -0.038553  0.154212      2.000000
 -0.000000 -0.000000  0.134935      2.000000
  0.134935 -0.000000  0.000000      4.000000
 -0.009638  0.009638  0.144574      4.000000
  0.144573 -0.009638  0.009638      8.000000
  0.009638  0.144574 -0.009638      8.000000
 -0.009638 -0.009638  0.144574      4.000000
  0.134935 -0.134935  0.000000      2.000000
 -0.000000  0.134935 -0.134935      8.000000
 -0.019277 -0.019276  0.154212      2.000000
 -0.000000 -0.000000  0.154212      1.000000
  0.154212 -0.000000  0.000000      2.000000
 -0.000000  0.019276  0.038553      8.000000
  0.038553 -0.000000  0.019277      8.000000
  0.019276  0.038553  0.000000      4.000000
 -0.038553  0.019276 -0.000000      4.000000
 -0.009638  0.028915  0.048191      8.000000
  0.048191 -0.009638  0.028915      8.000000
  0.028915  0.048191 -0.009638      8.000000
 -0.028915 -0.009638  0.048191      8.000000
  0.009638  0.048191  0.028915      8.000000
 -0.048191  0.028915 -0.009638      8.000000
 -0.019277  0.038553  0.057829      8.000000
  0.057829 -0.019276  0.038553      8.000000
  0.038553  0.057829 -0.019276      8.000000
 -0.038553 -0.019276  0.057829      8.000000
  0.019276  0.057829  0.038553      8.000000
 -0.057829  0.038553 -0.019277      8.000000
 -0.028915  0.048191  0.067468      8.000000
  0.067468 -0.028915  0.048191      8.000000
  0.048191  0.067468 -0.028915      8.000000
 -0.048191 -0.028915  0.067468      8.000000
  0.028915  0.067468  0.048191      8.000000
 -0.067468  0.048191 -0.028915      8.000000
 -0.038553  0.057829  0.077106      8.000000
  0.077106 -0.038553  0.057829      8.000000
  0.057829  0.077106 -0.038553      8.000000
 -0.057829 -0.038553  0.077106      8.000000
  0.038553  0.077106  0.057829      8.000000
 -0.077106  0.057829 -0.038553      8.000000
 -0.048191  0.067468  0.086744      8.000000
  0.086744 -0.048191  0.067468      8.000000
  0.067467  0.086744 -0.048191      8.000000
 -0.067468 -0.048191  0.086744      8.000000
  0.048191  0.086744  0.067468      8.000000
 -0.086744  0.067468 -0.048191      8.000000
  0.096382 -0.077106 -0.057829      8.000000
 -0.057829  0.096382 -0.077106      4.000000
 -0.077106 -0.057829  0.096382      8.000000
  0.212041 -0.057829 -0.077106      4.000000
 -0.000000  0.019276  0.057829      8.000000
  0.057829 -0.000000  0.019277      8.000000
  0.019276  0.057829  0.000000      4.000000
 -0.057829  0.019276 -0.000000      4.000000
 -0.009638  0.028915  0.067468      8.000000
  0.067468 -0.009638  0.028915      8.000000
  0.028915  0.067468 -0.009638      8.000000
 -0.028915 -0.009638  0.067468      8.000000
  0.009638  0.067468  0.028915      8.000000
 -0.067468  0.028915 -0.009638      8.000000
 -0.019277  0.038553  0.077106      8.000000
  0.077106 -0.019276  0.038553      8.000000
  0.038553  0.077106 -0.019276      8.000000
 -0.038553 -0.019276  0.077106      8.000000
  0.019276  0.077106  0.038553      8.000000
 -0.077106  0.038553 -0.019277      8.000000
 -0.028915  0.048191  0.086744      8.000000
  0.086744 -0.028915  0.048191      8.000000
  0.048191  0.086744 -0.028915      8.000000
 -0.048191 -0.028915  0.086744      8.000000
  0.028915  0.086744  0.048191      8.000000
 -0.086744  0.048191 -0.028915      8.000000
 -0.038553  0.057829  0.096382      8.000000
  0.096382 -0.038553  0.057829      8.000000
  0.057829  0.096382 -0.038553      8.000000
 -0.057829 -0.038553  0.096382      8.000000
  0.038553  0.096382  0.057830      8.000000
 -0.096382  0.057829 -0.038553      8.000000
  0.106021 -0.086744 -0.048191      8.000000
 -0.048191  0.106021 -0.086744      8.000000
 -0.086744 -0.048191  0.106021      8.000000
 -0.067468 -0.048191  0.106021      8.000000
  0.202403 -0.048191 -0.086744      8.000000
  0.048191 -0.086744  0.106021      8.000000
  0.096382 -0.077106 -0.038553      8.000000
 -0.038553  0.096382 -0.077106      8.000000
 -0.077106 -0.038553  0.096382      8.000000
 -0.077106 -0.057829  0.115659      8.000000
  0.057829 -0.192765  0.077106      8.000000
  0.038553 -0.077106  0.096382      8.000000
  0.086744 -0.067468 -0.028915      8.000000
 -0.028915  0.086744 -0.067468      8.000000
 -0.067468 -0.028915  0.086744      8.000000
  0.067467  0.086744 -0.028915      8.000000
  0.067468 -0.183126  0.086744      8.000000
  0.028915 -0.067468  0.086744      8.000000
  0.077106 -0.057829 -0.019276      8.000000
 -0.019276  0.077106 -0.057829      8.000000
 -0.057829 -0.019276  0.077106      8.000000
  0.057829  0.077106 -0.019276      8.000000
 -0.077106 -0.019276 -0.057829      8.000000
  0.019276 -0.057829  0.077106      8.000000
  0.067468 -0.048191 -0.009638      8.000000
 -0.009638  0.067468 -0.048191      8.000000
 -0.048191 -0.009638  0.067468      8.000000
  0.048191  0.067468 -0.009638      8.000000
 -0.067467 -0.009638 -0.048191      8.000000
  0.009638 -0.048191  0.067468      8.000000
  0.057829 -0.038553  0.000000      4.000000
 -0.000000  0.057829 -0.038553      8.000000
 -0.038553  0.000000  0.057829      8.000000
  0.038553  0.057829  0.000000      4.000000
 -0.000000  0.019276  0.077106      8.000000
  0.077106 -0.000000  0.019277      8.000000
  0.019276  0.077106  0.000000      4.000000
 -0.077106  0.019276 -0.000000      4.000000
 -0.009638  0.028915  0.086744      8.000000
  0.086744 -0.009638  0.028915      8.000000
  0.028915  0.086744 -0.009638      8.000000
 -0.028915 -0.009638  0.086744      8.000000
  0.009638  0.086744  0.028915      8.000000
 -0.086744  0.028915 -0.009638      8.000000
 -0.019277  0.038553  0.096382      8.000000
  0.096382 -0.019277  0.038553      8.000000
  0.038553  0.096382 -0.019276      8.000000
 -0.038553 -0.019276  0.096382      8.000000
  0.019276  0.096382  0.038553      8.000000
 -0.096382  0.038553 -0.019277      8.000000
 -0.028915  0.048191  0.106021      8.000000
  0.106020 -0.028915  0.048191      8.000000
  0.048191  0.106021 -0.028915      8.000000
 -0.048191 -0.028915  0.106021      8.000000
  0.028914  0.106021  0.048191      8.000000
 -0.106020  0.048191 -0.028915      8.000000
  0.115659 -0.096382 -0.038553      8.000000
 -0.038553  0.115659 -0.096382      8.000000
 -0.096382 -0.038553  0.115659      8.000000
 -0.057829 -0.038553  0.115659      8.000000
  0.192765 -0.038553 -0.096382      8.000000
  0.038553 -0.096382  0.115659      8.000000
  0.106021 -0.086744 -0.028915      8.000000
 -0.028915  0.106021 -0.086744      8.000000
 -0.086744 -0.028915  0.106021      8.000000
 -0.067468 -0.048191  0.125297      8.000000
  0.048191 -0.183126  0.067468      8.000000
  0.028915 -0.086744  0.106021      8.000000
  0.096382 -0.077106 -0.019276      8.000000
 -0.019276  0.096382 -0.077106      8.000000
 -0.077106 -0.019276  0.096382      8.000000
 -0.077106 -0.057829  0.134935      8.000000
  0.057829 -0.173488  0.077106      8.000000
  0.019276 -0.077106  0.096382      8.000000
  0.086744 -0.067468 -0.009638      8.000000
 -0.009638  0.086744 -0.067468      8.000000
 -0.067468 -0.009638  0.086744      8.000000
  0.067467  0.086744 -0.009638      8.000000
  0.067468 -0.163850  0.086744      8.000000
  0.009638 -0.067468  0.086744      8.000000
  0.077106 -0.057829  0.000000      4.000000
 -0.000000  0.077106 -0.057829      8.000000
 -0.057829  0.000000  0.077106      8.000000
  0.057829  0.077106  0.000000      4.000000
 -0.000000  0.019276  0.096382      8.000000
  0.096382 -0.000000  0.019277      8.000000
  0.019276  0.096382  0.000000      4.000000
 -0.096382  0.019276 -0.000000      4.000000
 -0.009638  0.028915  0.106021      8.000000
  0.106020 -0.009638  0.028915      8.000000
  0.028915  0.106021 -0.009638      8.000000
 -0.028915 -0.009638  0.106021      8.000000
  0.009638  0.106021  0.028915      8.000000
 -0.106020  0.028915 -0.009638      8.000000
 -0.019277  0.038553  0.115659      8.000000
  0.115659 -0.019277  0.038553      8.000000
  0.038553  0.115659 -0.019276      8.000000
 -0.038553 -0.019276  0.115659      8.000000
  0.019276  0.115659  0.038553      8.000000
 -0.115659  0.038553 -0.019277      8.000000
  0.125297 -0.106021 -0.028915      8.000000
 -0.028915  0.125297 -0.106021      8.000000
 -0.106020 -0.028915  0.125297      8.000000
 -0.048191 -0.028915  0.125297      8.000000
  0.183126 -0.028915 -0.106020      8.000000
  0.028915 -0.106021  0.125297      8.000000
  0.115659 -0.096382 -0.019276      8.000000
 -0.019277  0.115659 -0.096382      8.000000
 -0.096382 -0.019276  0.115659      8.000000
 -0.057829 -0.038553  0.134935      8.000000
  0.038553 -0.173488  0.057829      8.000000
  0.019276 -0.096382  0.115659      8.000000
  0.106021 -0.086744 -0.009638      8.000000
 -0.009638  0.106021 -0.086744      8.000000
 -0.086744 -0.009638  0.106021      8.000000
 -0.067468 -0.048191  0.144573      8.000000
  0.048191 -0.163850  0.067468      8.000000
  0.009638 -0.086744  0.106021      8.000000
  0.096382 -0.077106  0.000000      4.000000
 -0.000000  0.096382 -0.077106      8.000000
 -0.077106  0.000000  0.096382      8.000000
 -0.077106 -0.057829  0.154212      4.000000
 -0.000000  0.019276  0.115659      8.000000
  0.115659 -0.000000  0.019277      8.000000
  0.019276  0.115659  0.000000      4.000000
 -0.115659  0.019277 -0.000000      4.000000
 -0.009638  0.028915  0.125297      8.000000
  0.125297 -0.009638  0.028915      8.000000
  0.028915  0.125297 -0.009638      8.000000
 -0.028915 -0.009638  0.125297      8.000000
  0.009638  0.125297  0.028915      8.000000
 -0.125297  0.028915 -0.009638      8.000000
  0.134935 -0.115659 -0.019276      8.000000
 -0.019277  0.134935 -0.115659      8.000000
 -0.115659 -0.019276  0.134935      8.000000
 -0.038553 -0.019276  0.134935      8.000000
  0.173488 -0.019277 -0.115659      8.000000
  0.019276 -0.115659  0.134935      8.000000
  0.125297 -0.106021 -0.009638      8.000000
 -0.009638  0.125297 -0.106021      8.000000
 -0.106021 -0.009638  0.125297      8.000000
 -0.048191 -0.028915  0.144574      8.000000
  0.028915 -0.163850  0.048191      8.000000
  0.009638 -0.106021  0.125297      8.000000
  0.115659 -0.096382  0.000000      4.000000
 -0.000000  0.115659 -0.096382      8.000000
 -0.096382  0.000000  0.115659      8.000000
 -0.057829 -0.038553  0.154212      4.000000
 -0.000000  0.019276  0.134935      8.000000
  0.134935 -0.000000  0.019277      8.000000
  0.019276  0.134935  0.000000      4.000000
 -0.134935  0.019277 -0.000000      4.000000
  0.144573 -0.125297 -0.009638      8.000000
 -0.009638  0.144574 -0.125297      8.000000
 -0.125297 -0.009638  0.144573      8.000000
 -0.028915 -0.009638  0.144574      8.000000
  0.163850 -0.009638 -0.125297      8.000000
  0.009638 -0.125297  0.144574      8.000000
  0.134935 -0.115659  0.000000      4.000000
 -0.000000  0.134935 -0.115659      8.000000
 -0.115659  0.000000  0.134935      8.000000
 -0.038553 -0.019276  0.154212      4.000000
  0.154212 -0.134935  0.000000      4.000000
 -0.000000  0.154212 -0.134935      4.000000
 -0.134935  0.000000  0.154212      4.000000
 -0.000000  0.038553  0.077106      8.000000
  0.077106 -0.000000  0.038553      8.000000
  0.038553  0.077106  0.000000      4.000000
 -0.077106  0.038553 -0.000000      4.000000
 -0.009638  0.048191  0.086744      8.000000
  0.086744 -0.009638  0.048191      8.000000
  0.048191  0.086744 -0.009638      8.000000
 -0.048191 -0.009638  0.086744      8.000000
  0.009638  0.086744  0.048191      8.000000
 -0.086744  0.048191 -0.009638      8.000000
 -0.019277  0.057829  0.096382      8.000000
  0.096382 -0.019277  0.057829      8.000000
  0.057829  0.096382 -0.019276      8.000000
 -0.057829 -0.019276  0.096382      8.000000
  0.019276  0.096382  0.057829      8.000000
 -0.096382  0.057829 -0.019277      8.000000
  0.125297 -0.086744 -0.048191      8.000000
 -0.048191  0.125297 -0.086744      8.000000
 -0.086744 -0.048191  0.125297      8.000000
 -0.067468 -0.028915  0.106021      8.000000
  0.183126 -0.048191 -0.086744      8.000000
 -0.106020  0.067468 -0.028915      8.000000
  0.115659 -0.077106 -0.038553      8.000000
 -0.038553  0.115659 -0.077106      4.000000
 -0.077106 -0.038553  0.115659      8.000000
  0.192765 -0.038553 -0.077106      4.000000
 -0.000000  0.038553  0.096382      8.000000
  0.096382 -0.000000  0.038553      8.000000
  0.038553  0.096382  0.000000      4.000000
 -0.096382  0.038553 -0.000000      4.000000
 -0.009638  0.048191  0.106021      8.000000
  0.106020 -0.009638  0.048191      8.000000
  0.048191  0.106021 -0.009638      8.000000
 -0.048191 -0.009638  0.106021      8.000000
  0.009638  0.106021  0.048191      8.000000
 -0.106020  0.048191 -0.009638      8.000000
  0.134935 -0.096382 -0.038553      8.000000
 -0.038553  0.134935 -0.096382      8.000000
 -0.096382 -0.038553  0.134935      8.000000
 -0.057829 -0.019276  0.115659      8.000000
  0.173488 -0.038553 -0.096382      8.000000
 -0.115659  0.057829 -0.019277      8.000000
  0.125297 -0.086744 -0.028915      8.000000
 -0.028915  0.125297 -0.086744      8.000000
 -0.086744 -0.028915  0.125297      8.000000
 -0.067468 -0.028915  0.125297      8.000000
  0.183126 -0.028915 -0.086744      8.000000
  0.028915 -0.086744  0.125297      8.000000
  0.115659 -0.077106 -0.019276      8.000000
 -0.019277  0.115659 -0.077106      8.000000
 -0.077106 -0.019276  0.115659      8.000000
 -0.077106 -0.038553  0.134935      8.000000
  0.038553 -0.173488  0.077106      8.000000
  0.019276 -0.077106  0.115659      8.000000
  0.106021 -0.067468 -0.009638      8.000000
 -0.009638  0.106021 -0.067468      8.000000
 -0.067468 -0.009638  0.106021      8.000000
 -0.086744 -0.048191  0.144573      8.000000
  0.048191 -0.163850  0.086744      8.000000
  0.009638 -0.067468  0.106021      8.000000
  0.096382 -0.057829  0.000000      4.000000
 -0.000000  0.096382 -0.057829      8.000000
 -0.057829  0.000000  0.096382      8.000000
  0.057829  0.096382  0.000000      4.000000
 -0.000000  0.038553  0.115659      8.000000
  0.115659 -0.000000  0.038553      8.000000
  0.038553  0.115659  0.000000      4.000000
 -0.115659  0.038553 -0.000000      4.000000
  0.144573 -0.106021 -0.028915      8.000000
 -0.028915  0.144574 -0.106021      8.000000
 -0.106021 -0.028915  0.144573      8.000000
 -0.048191 -0.009638  0.125297      8.000000
  0.163850 -0.028915 -0.106020      8.000000
 -0.125297  0.048191 -0.009638      8.000000
  0.134935 -0.096382 -0.019276      8.000000
 -0.019277  0.134935 -0.096382      8.000000
 -0.096382 -0.019276  0.134935      8.000000
 -0.057829 -0.019276  0.134935      8.000000
  0.173488 -0.019277 -0.096382      8.000000
  0.019276 -0.096382  0.134935      8.000000
  0.125297 -0.086744 -0.009638      8.000000
 -0.009638  0.125297 -0.086744      8.000000
 -0.086744 -0.009638  0.125297      8.000000
 -0.067468 -0.028915  0.144573      8.000000
  0.028915 -0.163850  0.067468      8.000000
  0.009638 -0.086744  0.125297      8.000000
  0.115659 -0.077106  0.000000      4.000000
 -0.000000  0.115659 -0.077106      8.000000
 -0.077106  0.000000  0.115659      8.000000
 -0.077106 -0.038553  0.154212      4.000000
  0.154212 -0.115659 -0.019276      8.000000
 -0.019277  0.154212 -0.115659      8.000000
 -0.115659 -0.019276  0.154212      4.000000
 -0.134935  0.038553 -0.000000      4.000000
  0.144573 -0.106021 -0.009638      8.000000
 -0.009638  0.144574 -0.106021      8.000000
 -0.106021 -0.009638  0.144573      8.000000
 -0.048191 -0.009638  0.144574      8.000000
  0.163850 -0.009638 -0.106020      8.000000
  0.009638 -0.106021  0.144574      8.000000
  0.134935 -0.096382  0.000000      4.000000
 -0.000000  0.134935 -0.096382      8.000000
 -0.096382  0.000000  0.134935      8.000000
 -0.057829 -0.019276  0.154212      4.000000
  0.154212 -0.115659  0.000000      4.000000
 -0.000000  0.154212 -0.115659      4.000000
 -0.115659  0.000000  0.154212      4.000000
  0.154212 -0.096382 -0.038553      8.000000
 -0.038553  0.154212 -0.096382      8.000000
 -0.096382 -0.038553  0.154212      4.000000
 -0.115659  0.057829 -0.000000      4.000000
  0.144573 -0.086744 -0.028915      8.000000
 -0.028915  0.144574 -0.086744      8.000000
 -0.086744 -0.028915  0.144573      8.000000
 -0.067468 -0.009638  0.125297      8.000000
  0.163850 -0.028915 -0.086744      8.000000
 -0.125297  0.067468 -0.009638      8.000000
  0.134935 -0.077106 -0.019276      8.000000
 -0.019277  0.134935 -0.077106      4.000000
 -0.077106 -0.019276  0.134935      8.000000
  0.173488 -0.019277 -0.077106      4.000000
  0.154212 -0.096382 -0.019276      8.000000
 -0.019277  0.154212 -0.096382      8.000000
 -0.096382 -0.019276  0.154212      4.000000
 -0.134935  0.057829 -0.000000      4.000000
  0.144573 -0.086744 -0.009638      8.000000
 -0.009638  0.144574 -0.086744      8.000000
 -0.086744 -0.009638  0.144573      8.000000
 -0.067468 -0.009638  0.144574      8.000000
  0.163850 -0.009638 -0.086744      8.000000
  0.009638 -0.086744  0.144574      8.000000
  0.134935 -0.077106  0.000000      4.000000
 -0.000000  0.134935 -0.077106      8.000000
 -0.077106  0.000000  0.134935      8.000000
 -0.077106 -0.019276  0.154212      4.000000
  0.154212 -0.096382  0.000000      4.000000
 -0.000000  0.154212 -0.096382      4.000000
 -0.096382  0.000000  0.154212      4.000000
  0.154212 -0.077106  0.000000      4.000000
 -0.000000  0.154212 -0.077106      2.000000
 
 
 Subroutine IBZKPT_HF returns following result:
 ==============================================
 
 Found   4096 k-points in 1st BZ
 the following   4096 k-points will be used (e.g. in the exchange kernel)
 Following reciprocal coordinates:   # in IRBZ
  0.000000  0.000000  0.000000    0.00024414   1 t-inv F
  0.062500 -0.000000 -0.000000    0.00024414   2 t-inv F
 -0.000000  0.000000  0.062500    0.00024414   3 t-inv F
  0.125000 -0.000000 -0.000000    0.00024414   4 t-inv F
 -0.000000  0.000000  0.125000    0.00024414   5 t-inv F
  0.187500 -0.000000 -0.000000    0.00024414   6 t-inv F
 -0.000000  0.000000  0.187500    0.00024414   7 t-inv F
  0.250000 -0.000000 -0.000000    0.00024414   8 t-inv F
 -0.000000  0.000000  0.250000    0.00024414   9 t-inv F
  0.312500 -0.000000  0.000000    0.00024414  10 t-inv F
 -0.000000  0.000000  0.312500    0.00024414  11 t-inv F
  0.375000 -0.000000 -0.000000    0.00024414  12 t-inv F
 -0.000000  0.000000  0.375000    0.00024414  13 t-inv F
  0.437500 -0.000000  0.000000    0.00024414  14 t-inv F
 -0.000000  0.000000  0.437500    0.00024414  15 t-inv F
  0.500000 -0.000000 -0.000000    0.00024414  16 t-inv F
 -0.000000  0.000000  0.500000    0.00024414  17 t-inv F
  0.062500  0.062500  0.000000    0.00024414  18 t-inv F
 -0.000000  0.062500  0.062500    0.00024414  19 t-inv F
  0.125000  0.062500  0.000000    0.00024414  20 t-inv F
 -0.000000  0.125000  0.062500    0.00024414  21 t-inv F
  0.062500  0.000000  0.125000    0.00024414  22 t-inv F
  0.062500  0.062500 -0.062500    0.00024414  23 t-inv F
  0.187500  0.062500 -0.000000    0.00024414  24 t-inv F
  0.000000  0.187500  0.062500    0.00024414  25 t-inv F
  0.062500  0.000000  0.187500    0.00024414  26 t-inv F
  0.062500  0.062500 -0.125000    0.00024414  27 t-inv F
  0.250000  0.062500 -0.000000    0.00024414  28 t-inv F
 -0.000000  0.250000  0.062500    0.00024414  29 t-inv F
  0.062500  0.000000  0.250000    0.00024414  30 t-inv F
  0.062500  0.062500 -0.187500    0.00024414  31 t-inv F
  0.312500  0.062500  0.000000    0.00024414  32 t-inv F
  0.000000  0.312500  0.062500    0.00024414  33 t-inv F
  0.062500  0.000000  0.312500    0.00024414  34 t-inv F
  0.062500  0.062500 -0.250000    0.00024414  35 t-inv F
  0.375000  0.062500  0.000000    0.00024414  36 t-inv F
  0.000000  0.375000  0.062500    0.00024414  37 t-inv F
  0.062500  0.000000  0.375000    0.00024414  38 t-inv F
  0.062500  0.062500 -0.312500    0.00024414  39 t-inv F
  0.437500  0.062500  0.000000    0.00024414  40 t-inv F
  0.000000  0.437500  0.062500    0.00024414  41 t-inv F
  0.062500  0.000000  0.437500    0.00024414  42 t-inv F
  0.062500  0.062500 -0.375000    0.00024414  43 t-inv F
  0.500000  0.062500  0.000000    0.00024414  44 t-inv F
  0.000000  0.500000  0.062500    0.00024414  45 t-inv F
  0.062500  0.000000  0.500000    0.00024414  46 t-inv F
  0.062500  0.062500 -0.437500    0.00024414  47 t-inv F
 -0.437500  0.062500 -0.000000    0.00024414  48 t-inv F
  0.000000 -0.437500  0.062500    0.00024414  49 t-inv F
  0.062500 -0.000000 -0.437500    0.00024414  50 t-inv F
  0.062500  0.062500  0.500000    0.00024414  51 t-inv F
 -0.375000  0.062500 -0.000000    0.00024414  52 t-inv F
 -0.000000 -0.375000  0.062500    0.00024414  53 t-inv F
  0.062500 -0.000000 -0.375000    0.00024414  54 t-inv F
  0.062500  0.062500  0.437500    0.00024414  55 t-inv F
 -0.312500  0.062500 -0.000000    0.00024414  56 t-inv F
 -0.000000 -0.312500  0.062500    0.00024414  57 t-inv F
  0.062500 -0.000000 -0.312500    0.00024414  58 t-inv F
  0.062500  0.062500  0.375000    0.00024414  59 t-inv F
 -0.250000  0.062500 -0.000000    0.00024414  60 t-inv F
  0.000000 -0.250000  0.062500    0.00024414  61 t-inv F
  0.062500 -0.000000 -0.250000    0.00024414  62 t-inv F
  0.062500  0.062500  0.312500    0.00024414  63 t-inv F
 -0.187500  0.062500 -0.000000    0.00024414  64 t-inv F
 -0.000000 -0.187500  0.062500    0.00024414  65 t-inv F
  0.062500 -0.000000 -0.187500    0.00024414  66 t-inv F
  0.062500  0.062500  0.250000    0.00024414  67 t-inv F
 -0.125000  0.062500 -0.000000    0.00024414  68 t-inv F
 -0.000000 -0.125000  0.062500    0.00024414  69 t-inv F
  0.062500 -0.000000 -0.125000    0.00024414  70 t-inv F
  0.062500  0.062500  0.187500    0.00024414  71 t-inv F
 -0.062500  0.062500 -0.000000    0.00024414  72 t-inv F
 -0.000000 -0.062500  0.062500    0.00024414  73 t-inv F
  0.062500  0.062500  0.125000    0.00024414  74 t-inv F
  0.125000  0.125000  0.000000    0.00024414  75 t-inv F
 -0.000000  0.125000  0.125000    0.00024414  76 t-inv F
  0.187500  0.125000  0.000000    0.00024414  77 t-inv F
  0.000000  0.187500  0.125000    0.00024414  78 t-inv F
  0.125000  0.000000  0.187500    0.00024414  79 t-inv F
  0.125000  0.125000 -0.062500    0.00024414  80 t-inv F
  0.250000  0.125000  0.000000    0.00024414  81 t-inv F
 -0.000000  0.250000  0.125000    0.00024414  82 t-inv F
  0.125000  0.000000  0.250000    0.00024414  83 t-inv F
  0.125000  0.125000 -0.125000    0.00024414  84 t-inv F
  0.312500  0.125000  0.000000    0.00024414  85 t-inv F
  0.000000  0.312500  0.125000    0.00024414  86 t-inv F
  0.125000  0.000000  0.312500    0.00024414  87 t-inv F
  0.125000  0.125000 -0.187500    0.00024414  88 t-inv F
  0.375000  0.125000 -0.000000    0.00024414  89 t-inv F
  0.000000  0.375000  0.125000    0.00024414  90 t-inv F
  0.125000  0.000000  0.375000    0.00024414  91 t-inv F
  0.125000  0.125000 -0.250000    0.00024414  92 t-inv F
  0.437500  0.125000  0.000000    0.00024414  93 t-inv F
 -0.000000  0.437500  0.125000    0.00024414  94 t-inv F
  0.125000  0.000000  0.437500    0.00024414  95 t-inv F
  0.125000  0.125000 -0.312500    0.00024414  96 t-inv F
  0.500000  0.125000 -0.000000    0.00024414  97 t-inv F
 -0.000000  0.500000  0.125000    0.00024414  98 t-inv F
  0.125000  0.000000  0.500000    0.00024414  99 t-inv F
  0.125000  0.125000 -0.375000    0.00024414 100 t-inv F
 -0.437500  0.125000 -0.000000    0.00024414 101 t-inv F
 -0.000000 -0.437500  0.125000    0.00024414 102 t-inv F
  0.125000 -0.000000 -0.437500    0.00024414 103 t-inv F
  0.125000  0.125000 -0.437500    0.00024414 104 t-inv F
 -0.375000  0.125000 -0.000000    0.00024414 105 t-inv F
 -0.000000 -0.375000  0.125000    0.00024414 106 t-inv F
  0.125000 -0.000000 -0.375000    0.00024414 107 t-inv F
  0.125000  0.125000  0.500000    0.00024414 108 t-inv F
 -0.312500  0.125000 -0.000000    0.00024414 109 t-inv F
 -0.000000 -0.312500  0.125000    0.00024414 110 t-inv F
  0.125000 -0.000000 -0.312500    0.00024414 111 t-inv F
  0.125000  0.125000  0.437500    0.00024414 112 t-inv F
 -0.250000  0.125000 -0.000000    0.00024414 113 t-inv F
 -0.000000 -0.250000  0.125000    0.00024414 114 t-inv F
  0.125000 -0.000000 -0.250000    0.00024414 115 t-inv F
  0.125000  0.125000  0.375000    0.00024414 116 t-inv F
 -0.187500  0.125000 -0.000000    0.00024414 117 t-inv F
 -0.000000 -0.187500  0.125000    0.00024414 118 t-inv F
  0.125000 -0.000000 -0.187500    0.00024414 119 t-inv F
  0.125000  0.125000  0.312500    0.00024414 120 t-inv F
 -0.125000  0.125000 -0.000000    0.00024414 121 t-inv F
[...]
      LOOP:  cpu time    9.8103: real time    9.8026

 Broyden mixing:
  rms(total) = 0.23467E-02    rms(broyden)= 0.23467E-02
  rms(prec ) = 0.34853E-02
  weight for this iteration     100.00

 eigenvalues of (default mixing * dielectric matrix)
  average eigenvalue GAMMA=   2.0978
  1.0106  1.8111  3.1078  2.4618

 Free energy of the ion-electron system (eV)
  ---------------------------------------------------
  -Hartree energ DENC   =        -0.17419279
  -V(xc)+E(xc)   XCENC  =         0.00178175
  PAW double counting   =         1.95637887       -1.95659525
  entropy T*S    EENTRO =         0.00000000
  eigenvalues    EBANDS =        -1.41254694
  ---------------------------------------------------
  free energy    TOTEN  =        -1.58517436 eV

  energy without entropy =       -1.58517436


----------------------------------------- Iteration    3(   7)  ---------------------------------------


   POT+DIJ:  cpu time    0.0241: real time    0.0240
    HAMIL1:  cpu time    1.2502: real time    1.2492
    LRDIAG:  cpu time    0.3465: real time    0.3462
    LRDIIS:  cpu time    6.9316: real time    6.9262
    LRDIAG:  cpu time    0.3449: real time    0.3446
    MIXING:  cpu time    0.0005: real time    0.0005
    --------------------------------------------
      LOOP:  cpu time    9.7560: real time    9.7484

 Broyden mixing:
  rms(total) = 0.37540E-03    rms(broyden)= 0.37540E-03
  rms(prec ) = 0.62998E-03
  weight for this iteration     100.00

 eigenvalues of (default mixing * dielectric matrix)
  average eigenvalue GAMMA=   1.9753
  2.9864  0.9921  2.4079  1.8599  1.6299

 Free energy of the ion-electron system (eV)
  ---------------------------------------------------
  -Hartree energ DENC   =        -0.17460687
  -V(xc)+E(xc)   XCENC  =         0.00180028
  PAW double counting   =         1.92751707       -1.92774836
  entropy T*S    EENTRO =         0.00000000
  eigenvalues    EBANDS =        -1.41391434
  ---------------------------------------------------
  free energy    TOTEN  =        -1.58695222 eV

  energy without entropy =       -1.58695222


----------------------------------------- Iteration    3(   8)  ---------------------------------------


   POT+DIJ:  cpu time    0.0244: real time    0.0244
    HAMIL1:  cpu time    1.2770: real time    1.2760
    LRDIAG:  cpu time    0.3465: real time    0.3462
    LRDIIS:  cpu time    6.9739: real time    6.9685
    LRDIAG:  cpu time    0.3455: real time    0.3452
    MIXING:  cpu time    0.0006: real time    0.0006
    --------------------------------------------
      LOOP:  cpu time    9.8265: real time    9.8189

 Broyden mixing:
  rms(total) = 0.15045E-03    rms(broyden)= 0.15045E-03
  rms(prec ) = 0.23807E-03
  weight for this iteration     100.00

 eigenvalues of (default mixing * dielectric matrix)
  average eigenvalue GAMMA=   1.9911
  3.2386  2.6888  2.2128  1.7872  1.0983  0.9211

 Free energy of the ion-electron system (eV)
  ---------------------------------------------------
  -Hartree energ DENC   =        -0.17461346
  -V(xc)+E(xc)   XCENC  =         0.00180011
  PAW double counting   =         1.92976124       -1.92999602
  entropy T*S    EENTRO =         0.00000000
  eigenvalues    EBANDS =        -1.41390028
  ---------------------------------------------------
  free energy    TOTEN  =        -1.58694840 eV

  energy without entropy =       -1.58694840


----------------------------------------- Iteration    3(   9)  ---------------------------------------


   POT+DIJ:  cpu time    0.0247: real time    0.0250
    HAMIL1:  cpu time    1.2529: real time    1.2519
    LRDIAG:  cpu time    0.3463: real time    0.3460
    LRDIIS:  cpu time    6.9510: real time    6.9456
    LRDIAG:  cpu time    0.3449: real time    0.3447
    MIXING:  cpu time    0.0006: real time    0.0006
    --------------------------------------------
      LOOP:  cpu time    9.7756: real time    9.7682

 Broyden mixing:
  rms(total) = 0.46546E-04    rms(broyden)= 0.46546E-04
  rms(prec ) = 0.71880E-04
  weight for this iteration     100.00

 eigenvalues of (default mixing * dielectric matrix)
  average eigenvalue GAMMA=   2.0095
  3.3171  2.4975  2.4975  2.0474  1.7500  1.0031  0.9538

 Free energy of the ion-electron system (eV)
  ---------------------------------------------------
  -Hartree energ DENC   =        -0.17461794
  -V(xc)+E(xc)   XCENC  =         0.00180107
  PAW double counting   =         1.92781294       -1.92804877
  entropy T*S    EENTRO =         0.00000000
  eigenvalues    EBANDS =        -1.41398793
  ---------------------------------------------------
  free energy    TOTEN  =        -1.58704063 eV

  energy without entropy =       -1.58704063


----------------------------------------- Iteration    3(  10)  ---------------------------------------


   POT+DIJ:  cpu time    0.0233: real time    0.0241
    HAMIL1:  cpu time    1.2790: real time    1.2780
    LRDIAG:  cpu time    0.3464: real time    0.3462
    LRDIIS:  cpu time    7.0054: real time    6.9999
    LRDIAG:  cpu time    0.3452: real time    0.3449
    MIXING:  cpu time    0.0006: real time    0.0006
    --------------------------------------------
      LOOP:  cpu time    9.8550: real time    9.8473

 Broyden mixing:
  rms(total) = 0.19215E-04    rms(broyden)= 0.19215E-04
  rms(prec ) = 0.23967E-04
  weight for this iteration     100.00

 eigenvalues of (default mixing * dielectric matrix)
  average eigenvalue GAMMA=   1.8598
  3.3124  2.5054  2.5054  2.1622  1.7617  0.9796  0.9796  0.6720

 Free energy of the ion-electron system (eV)
  ---------------------------------------------------
  -Hartree energ DENC   =        -0.17462834
  -V(xc)+E(xc)   XCENC  =         0.00180110
  PAW double counting   =         1.92706472       -1.92729997
  entropy T*S    EENTRO =         0.00000000
  eigenvalues    EBANDS =        -1.41397760
  ---------------------------------------------------
  free energy    TOTEN  =        -1.58704009 eV

  energy without entropy =       -1.58704009


----------------------------------------- Iteration    3(  11)  ---------------------------------------


   POT+DIJ:  cpu time    0.0242: real time    0.0242
    HAMIL1:  cpu time    1.2442: real time    1.2432
    LRDIAG:  cpu time    0.3464: real time    0.3462
    LRDIIS:  cpu time    7.1942: real time    7.1885
    LRDIAG:  cpu time    0.3888: real time    0.3885
    MIXING:  cpu time    0.0007: real time    0.0007
    --------------------------------------------
      LOOP:  cpu time   10.0566: real time   10.0487

 Broyden mixing:
  rms(total) = 0.15623E-04    rms(broyden)= 0.15623E-04
  rms(prec ) = 0.18263E-04
  weight for this iteration     100.00

 eigenvalues of (default mixing * dielectric matrix)
  average eigenvalue GAMMA=   1.9885
  3.4189  3.0232  2.6181  2.2789  1.7434  1.7434  0.9801  0.9801  1.1109

 Free energy of the ion-electron system (eV)
  ---------------------------------------------------
  -Hartree energ DENC   =        -0.17462555
  -V(xc)+E(xc)   XCENC  =         0.00180105
  PAW double counting   =         1.92688425       -1.92711942
  entropy T*S    EENTRO =         0.00000000
  eigenvalues    EBANDS =        -1.41397600
  ---------------------------------------------------
  free energy    TOTEN  =        -1.58703567 eV

  energy without entropy =       -1.58703567


----------------------------------------- Iteration    3(  12)  ---------------------------------------


   POT+DIJ:  cpu time    0.0273: real time    0.0272
    HAMIL1:  cpu time    1.3903: real time    1.3892
    LRDIAG:  cpu time    0.3464: real time    0.3462
    LRDIIS:  cpu time    6.9752: real time    6.9697
    LRDIAG:  cpu time    0.3449: real time    0.3447
    MIXING:  cpu time    0.0006: real time    0.0006
    --------------------------------------------
      LOOP:  cpu time    9.9427: real time    9.9340

 Broyden mixing:
  rms(total) = 0.27871E-05    rms(broyden)= 0.27871E-05
  rms(prec ) = 0.32197E-05
  weight for this iteration     100.00

 eigenvalues of (default mixing * dielectric matrix)
  average eigenvalue GAMMA=   1.8865
  3.3635  3.0290  2.4537  2.4537  1.8852  1.7391  0.9917  0.9612  0.9941  0.9941

 Free energy of the ion-electron system (eV)
  ---------------------------------------------------
  -Hartree energ DENC   =        -0.17462447
  -V(xc)+E(xc)   XCENC  =         0.00180102
  PAW double counting   =         1.92650059       -1.92673564
  entropy T*S    EENTRO =         0.00000000
  eigenvalues    EBANDS =        -1.41397460
  ---------------------------------------------------
  free energy    TOTEN  =        -1.58703309 eV

  energy without entropy =       -1.58703309


----------------------------------------- Iteration    3(  13)  ---------------------------------------


   POT+DIJ:  cpu time    0.0232: real time    0.0240
    HAMIL1:  cpu time    1.2406: real time    1.2397
    LRDIAG:  cpu time    0.3464: real time    0.3462
    LRDIIS:  cpu time    7.1012: real time    7.0956
    LRDIAG:  cpu time    0.3451: real time    0.3448
    MIXING:  cpu time    0.0007: real time    0.0007
    --------------------------------------------
      LOOP:  cpu time    9.9142: real time    9.9073

 Broyden mixing:
  rms(total) = 0.18998E-05    rms(broyden)= 0.18998E-05
  rms(prec ) = 0.20737E-05
  weight for this iteration     100.00

 eigenvalues of (default mixing * dielectric matrix)
  average eigenvalue GAMMA=   1.9546
  3.4231  3.1287  2.6625  2.5593  2.1763  1.7760  1.5839  0.9591  1.0069  1.0069
  1.2175

 Free energy of the ion-electron system (eV)
  ---------------------------------------------------
  -Hartree energ DENC   =        -0.17462352
  -V(xc)+E(xc)   XCENC  =         0.00180100
  PAW double counting   =         1.92651360       -1.92674866
  entropy T*S    EENTRO =         0.00000000
  eigenvalues    EBANDS =        -1.41397227
  ---------------------------------------------------
  free energy    TOTEN  =        -1.58702987 eV

  energy without entropy =       -1.58702987


----------------------------------------- Iteration    3(  14)  ---------------------------------------


   POT+DIJ:  cpu time    0.0243: real time    0.0243
    HAMIL1:  cpu time    1.2798: real time    1.2788
    LRDIAG:  cpu time    0.3465: real time    0.3462
    LRDIIS:  cpu time    6.6860: real time    6.6807
    LRDIAG:  cpu time    0.3450: real time    0.3448
    MIXING:  cpu time    0.0007: real time    0.0007
    --------------------------------------------
      LOOP:  cpu time    9.5375: real time    9.5300

 Broyden mixing:
  rms(total) = 0.20400E-06    rms(broyden)= 0.20400E-06
  rms(prec ) = 0.33159E-06
  weight for this iteration     100.00

 eigenvalues of (default mixing * dielectric matrix)
  average eigenvalue GAMMA=   1.8777
  3.4188  3.1514  2.6263  2.5193  2.3506  1.8232  1.7322  1.0333  1.0333  1.0091
  0.9697  0.8656

 Free energy of the ion-electron system (eV)
  ---------------------------------------------------
  -Hartree energ DENC   =        -0.17462364
  -V(xc)+E(xc)   XCENC  =         0.00180100
  PAW double counting   =         1.92656342       -1.92679850
  entropy T*S    EENTRO =         0.00000000
  eigenvalues    EBANDS =        -1.41397385
  ---------------------------------------------------
  free energy    TOTEN  =        -1.58703158 eV

  energy without entropy =       -1.58703158


------------------------ aborting loop because EDIFF is reached ----------------------------------------


 change of polarisation eV/A/(eV/A) component  3 :     0.384     0.523     2.913
 dielectric tensor                  component  3 :     1.020     1.390     8.732


--------------------------------------------------------------------------------------------------------


    FORLOC:  cpu time    0.0012: real time    0.0012
    FORNL :  cpu time    0.2610: real time    0.2608
    STRESS:  cpu time   12.2564: real time   12.2468
    FORCOR:  cpu time    0.0090: real time    0.0090
    OFIELD:  cpu time    0.0001: real time    0.0001
    FORLOC:  cpu time    0.0008: real time    0.0008
    FORNL :  cpu time    0.2610: real time    0.2608
    STRESS:  cpu time   12.1875: real time   12.1780
    FORCOR:  cpu time    0.0099: real time    0.0102
    OFIELD:  cpu time    0.0001: real time    0.0001
    FORNLD:  cpu time    7.7977: real time    7.7916

 PIEZOELECTRIC TENSOR FIELD DIRECTION 3  (e Angst)
 -----------------------------------------------------------------------------
    -0.00052  2.54377  0.00000           (  0.00000 -0.06254 -0.00000)
     2.54377 -0.00052  0.00000           ( -0.06254  0.00000 -0.00000)
     0.00000  0.00000 -0.00025           ( -0.00000 -0.00000  0.00001)

 PIEZOELECTRIC TENSOR FIELD DIRECTION 3  (C/m^2)
 -----------------------------------------------------------------------------
    -0.00012  0.59786  0.00000
     0.59786 -0.00012  0.00000
     0.00000  0.00000 -0.00006


      POSITION         DIRECTION 3           BORN EFFECTIVE CHARGE    (rigid.aug.   ionic)
 -----------------------------------------------------------------------------------------
      3.24230      3.24230      0.00004     0.00000  0.00000  2.17952 ( -5.74992 12.00000)
      4.86344      4.86345      4.86341     0.00001  0.00001 -2.18136 (  1.17246  6.00000)
 -----------------------------------------------------------------------------------------
    total drift (improves with k-points):   0.00001  0.00001 -0.00184




--------------------------------------------------------------------------------------------------------


  LATTYP: Found a face centered cubic cell.
 ALAT       =     6.4846000700
  
  Lattice vectors:
  
 A1 = (  -0.0000017000,   3.2422935200,   3.2422944000)
 A2 = (   3.2422972400,   0.0000022700,   3.2422966200)
 A3 = (   3.2423007900,   3.2422992800,   0.0000031700)


Analysis of symmetry for initial positions (statically):
=====================================================================
 Subroutine PRICEL returns:
 Original cell was already a primitive cell.
 

 Routine SETGRP: Setting up the symmetry group for a 
 face centered cubic supercell.


 Subroutine GETGRP returns: Found  4 space group operations
 (whereof  4 operations were pure point group operations)
 out of a pool of 48 trial point group operations.


The static configuration has the point symmetry C_2v.


Analysis of symmetry for dynamics (positions and initial velocities):
=====================================================================
 Subroutine PRICEL returns:
 Original cell was already a primitive cell.
 

 Routine SETGRP: Setting up the symmetry group for a 
 face centered cubic supercell.


 Subroutine GETGRP returns: Found  4 space group operations
 (whereof  4 operations were pure point group operations)
 out of a pool of 48 trial point group operations.


The dynamic configuration has the point symmetry C_2v.


 Subroutine INISYM returns: Found  4 space group operations
 (whereof  4 operations are pure point group operations),
 and found     1 'primitive' translations



 MACROSCOPIC STATIC DIELECTRIC TENSOR (including local field effects in DFT)
 ------------------------------------------------------
           8.731729    -0.000044     0.000000
          -0.000044     8.731704    -0.000003
           0.000000    -0.000003     8.731664
 ------------------------------------------------------



--------------------------------------------------------------------------------------------------------


  LATTYP: Found a face centered cubic cell.
 ALAT       =     6.4846000700
  
  Lattice vectors:
  
 A1 = (  -0.0000017000,   3.2422935200,   3.2422944000)
 A2 = (   3.2422972400,   0.0000022700,   3.2422966200)
 A3 = (   3.2423007900,   3.2422992800,   0.0000031700)


Analysis of symmetry for initial positions (statically):
=====================================================================
 Subroutine PRICEL returns:
 Original cell was already a primitive cell.
 

 Routine SETGRP: Setting up the symmetry group for a 
 face centered cubic supercell.


 Subroutine GETGRP returns: Found  4 space group operations
 (whereof  4 operations were pure point group operations)
 out of a pool of 48 trial point group operations.


The static configuration has the point symmetry C_2v.


Analysis of symmetry for dynamics (positions and initial velocities):
=====================================================================
 Subroutine PRICEL returns:
 Original cell was already a primitive cell.
 

 Routine SETGRP: Setting up the symmetry group for a 
 face centered cubic supercell.


 Subroutine GETGRP returns: Found  4 space group operations
 (whereof  4 operations were pure point group operations)
 out of a pool of 48 trial point group operations.


The dynamic configuration has the point symmetry C_2v.


 Subroutine INISYM returns: Found  4 space group operations
 (whereof  4 operations are pure point group operations),
 and found     1 'primitive' translations



--------------------------------------------------------------------------------------------------------




 MACROSCOPIC STATIC DIELECTRIC TENSOR (including local field effects in DFT)
 ------------------------------------------------------
           8.731729    -0.000044     0.000000
          -0.000044     8.731704    -0.000003
           0.000000    -0.000003     8.731664
 ------------------------------------------------------


 PIEZOELECTRIC TENSOR (including local field effects)  for field in x, y, z        (e  Angst)
          XX          YY          ZZ          XY          YZ          ZX
  --------------------------------------------------------------------------------
  x    -0.00000    -0.00000     0.00000    -0.00000     2.54944     0.00034
  y    -0.00000    -0.00000     0.00000    -0.00000     0.00035     2.54944
  z    -0.00052    -0.00052    -0.00025     2.54377     0.00000     0.00000

 PIEZOELECTRIC TENSOR (including local field effects)  for field in x, y, z        (C/m^2)
          XX          YY          ZZ          XY          YZ          ZX
  --------------------------------------------------------------------------------
  x    -0.00000    -0.00000     0.00000    -0.00000     0.59919     0.00008
  y    -0.00000    -0.00000     0.00000    -0.00000     0.00008     0.59919
  z    -0.00012    -0.00012    -0.00006     0.59786     0.00000     0.00000
 
 BORN EFFECTIVE CHARGES (including local field effects) (in |e|, cummulative output)
 ---------------------------------------------------------------------------------
 ion    1
    1     2.18031     0.00000     0.00000
    2     0.00000     2.18031    -0.00000
    3     0.00000    -0.00000     2.18044
 ion    2
    1    -2.18031    -0.00000    -0.00000
    2    -0.00000    -2.18031     0.00000
    3    -0.00000     0.00000    -2.18044


--------------------------------------------------------------------------------------------------------


     LOOP+:  cpu time 2108.6147: real time 2107.1500
    4ORBIT:  cpu time    0.0000: real time    0.0000

 total amount of memory used by VASP MPI-rank0   468721. kBytes
=======================================================================

   base      :      30000. kBytes
   nonl-proj :     410708. kBytes
   fftplans  :        933. kBytes
   grid      :       3680. kBytes
   one-center:         31. kBytes
   wavefun   :      23369. kBytes
 
  
  
 General timing and accounting informations for this job:
 ========================================================
  
                  Total CPU time used (sec):     2113.247
                            User time (sec):     2091.081
                          System time (sec):       22.166
                         Elapsed time (sec):     2112.386
  
                   Maximum memory used (kb):     2012188.
                   Average memory used (kb):           0.
  
                          Minor page faults:       763166
                          Major page faults:          102
                 Voluntary context switches:         1661
