<?xml version="1.0" encoding="ISO-8859-1"?>
<modeling>
 <generator>
  <i name="program" type="string">vasp </i>
  <i name="version" type="string">6.1.2  </i>
  <i name="subversion" type="string">22Jul20 (build Dec 07 2020 09:43:49) complex                          parallel </i>
  <i name="platform" type="string">LinuxIFC </i>
  <i name="date" type="string">2023 08 19 </i>
  <i name="time" type="string">19:26:20 </i>
 </generator>
 <incar>
  <i type="string" name="PREC"> Accurate</i>
  <i type="int" name="NELMIN">     5</i>
  <i type="int" name="IBRION">    -1</i>
  <i name="EDIFF">      0.00000001</i>
  <i name="ENCUT">    600.00000000</i>
  <i type="logical" name="LREAL"> F  </i>
  <i type="int" name="ISMEAR">     0</i>
  <i name="SIGMA">      0.00100000</i>
  <i type="logical" name="LWAVE"> F  </i>
  <i type="logical" name="LCHARG"> F  </i>
  <i type="logical" name="LEPSILON"> T  </i>
  <i name="EDIFF">      0.00000001</i>
 </incar>
 <structure name="primitive_cell" >
  <crystal>
   <varray name="basis" >
    <v>      -0.00000170       3.24229352       3.24229440 </v>
    <v>       3.24229724       0.00000227       3.24229662 </v>
    <v>       3.24230079       3.24229928       0.00000317 </v>
   </varray>
   <i name="volume">     68.16918762 </i>
   <varray name="rec_basis" >
    <v>      -0.15421184       0.15421176       0.15421176 </v>
    <v>       0.15421159      -0.15421181       0.15421185 </v>
    <v>       0.15421146       0.15421172      -0.15421160 </v>
   </varray>
  </crystal>
  <varray name="positions" >
   <v>       0.00000557       0.00000632       0.99999445 </v>
   <v>       0.74999443       0.74999368       0.75000555 </v>
  </varray>
 </structure>
 <varray name="primitive_index" >
  <v type="int" >        1 </v>
  <v type="int" >        2 </v>
 </varray>
 <kpoints>
  <generation param="Gamma">
   <v type="int" name="divisions">      16       16       16 </v>
   <v name="usershift">      0.00000000       0.00000000       0.00000000 </v>
   <v name="genvec1">      0.06250000       0.00000000       0.00000000 </v>
   <v name="genvec2">      0.00000000       0.06250000       0.00000000 </v>
   <v name="genvec3">      0.00000000       0.00000000       0.06250000 </v>
   <v name="shift">      0.00000000       0.00000000       0.00000000 </v>
  </generation>
  <varray name="kpointlist" >
   <v>       0.00000000       0.00000000       0.00000000 </v>
   <v>       0.06250000      -0.00000000      -0.00000000 </v>
   <v>      -0.00000000       0.00000000       0.06250000 </v>
   <v>       0.12500000      -0.00000000      -0.00000000 </v>
   <v>      -0.00000000       0.00000000       0.12500000 </v>
   <v>       0.18750000      -0.00000000      -0.00000000 </v>
   <v>      -0.00000000       0.00000000       0.18750000 </v>
   <v>       0.25000000      -0.00000000      -0.00000000 </v>
   <v>      -0.00000000       0.00000000       0.25000000 </v>
   <v>       0.31250000      -0.00000000       0.00000000 </v>
   <v>      -0.00000000       0.00000000       0.31250000 </v>
   <v>       0.37500000      -0.00000000      -0.00000000 </v>
   <v>      -0.00000000       0.00000000       0.37500000 </v>
   <v>       0.43750000      -0.00000000       0.00000000 </v>
   <v>      -0.00000000       0.00000000       0.43750000 </v>
   <v>       0.50000000      -0.00000000      -0.00000000 </v>
   <v>      -0.00000000       0.00000000       0.50000000 </v>
   <v>       0.06250000       0.06250000       0.00000000 </v>
   <v>      -0.00000000       0.06250000       0.06250000 </v>
   <v>       0.12500000       0.06250000       0.00000000 </v>
   <v>      -0.00000000       0.12500000       0.06250000 </v>
   <v>       0.06250000       0.00000000       0.12500000 </v>
   <v>       0.06250000       0.06250000      -0.06250000 </v>
   <v>       0.18750000       0.06250000      -0.00000000 </v>
   <v>       0.00000000       0.18750000       0.06250000 </v>
   <v>       0.06250000       0.00000000       0.18750000 </v>
   <v>       0.06250000       0.06250000      -0.12500000 </v>
   <v>       0.25000000       0.06250000      -0.00000000 </v>
   <v>      -0.00000000       0.25000000       0.06250000 </v>
   <v>       0.06250000       0.00000000       0.25000000 </v>
   <v>       0.06250000       0.06250000      -0.18750000 </v>
   <v>       0.31250000       0.06250000       0.00000000 </v>
   <v>       0.00000000       0.31250000       0.06250000 </v>
   <v>       0.06250000       0.00000000       0.31250000 </v>
   <v>       0.06250000       0.06250000      -0.25000000 </v>
   <v>       0.37500000       0.06250000       0.00000000 </v>
   <v>       0.00000000       0.37500000       0.06250000 </v>
   <v>       0.06250000       0.00000000       0.37500000 </v>
   <v>       0.06250000       0.06250000      -0.31250000 </v>
   <v>       0.43750000       0.06250000       0.00000000 </v>
   <v>       0.00000000       0.43750000       0.06250000 </v>
   <v>       0.06250000       0.00000000       0.43750000 </v>
   <v>       0.06250000       0.06250000      -0.37500000 </v>
   <v>       0.50000000       0.06250000       0.00000000 </v>
   <v>       0.00000000       0.50000000       0.06250000 </v>
   <v>       0.06250000       0.00000000       0.50000000 </v>
   <v>       0.06250000       0.06250000      -0.43750000 </v>
   <v>      -0.43750000       0.06250000      -0.00000000 </v>
   <v>       0.00000000      -0.43750000       0.06250000 </v>
   <v>       0.06250000      -0.00000000      -0.43750000 </v>
   <v>       0.06250000       0.06250000       0.50000000 </v>
   <v>      -0.37500000       0.06250000      -0.00000000 </v>
   <v>      -0.00000000      -0.37500000       0.06250000 </v>
   <v>       0.06250000      -0.00000000      -0.37500000 </v>
   <v>       0.06250000       0.06250000       0.43750000 </v>
   <v>      -0.31250000       0.06250000      -0.00000000 </v>
   <v>      -0.00000000      -0.31250000       0.06250000 </v>
   <v>       0.06250000      -0.00000000      -0.31250000 </v>
   <v>       0.06250000       0.06250000       0.37500000 </v>
   <v>      -0.25000000       0.06250000      -0.00000000 </v>
   <v>       0.00000000      -0.25000000       0.06250000 </v>
   <v>       0.06250000      -0.00000000      -0.25000000 </v>
   <v>       0.06250000       0.06250000       0.31250000 </v>
   <v>      -0.18750000       0.06250000      -0.00000000 </v>
   <v>      -0.00000000      -0.18750000       0.06250000 </v>
   <v>       0.06250000      -0.00000000      -0.18750000 </v>
   <v>       0.06250000       0.06250000       0.25000000 </v>
   <v>      -0.12500000       0.06250000      -0.00000000 </v>
   <v>      -0.00000000      -0.12500000       0.06250000 </v>
   <v>       0.06250000      -0.00000000      -0.12500000 </v>
   <v>       0.06250000       0.06250000       0.18750000 </v>
   <v>      -0.06250000       0.06250000      -0.00000000 </v>
   <v>      -0.00000000      -0.06250000       0.06250000 </v>
   <v>       0.06250000       0.06250000       0.12500000 </v>
   <v>       0.12500000       0.12500000       0.00000000 </v>
   <v>      -0.00000000       0.12500000       0.12500000 </v>
   <v>       0.18750000       0.12500000       0.00000000 </v>
   <v>       0.00000000       0.18750000       0.12500000 </v>
   <v>       0.12500000       0.00000000       0.18750000 </v>
   <v>       0.12500000       0.12500000      -0.06250000 </v>
   <v>       0.25000000       0.12500000       0.00000000 </v>
   <v>      -0.00000000       0.25000000       0.12500000 </v>
   <v>       0.12500000       0.00000000       0.25000000 </v>
   <v>       0.12500000       0.12500000      -0.12500000 </v>
   <v>       0.31250000       0.12500000       0.00000000 </v>
   <v>       0.00000000       0.31250000       0.12500000 </v>
   <v>       0.12500000       0.00000000       0.31250000 </v>
   <v>       0.12500000       0.12500000      -0.18750000 </v>
   <v>       0.37500000       0.12500000      -0.00000000 </v>
   <v>       0.00000000       0.37500000       0.12500000 </v>
   <v>       0.12500000       0.00000000       0.37500000 </v>
   <v>       0.12500000       0.12500000      -0.25000000 </v>
   <v>       0.43750000       0.12500000       0.00000000 </v>
   <v>      -0.00000000       0.43750000       0.12500000 </v>
   <v>       0.12500000       0.00000000       0.43750000 </v>
   <v>       0.12500000       0.12500000      -0.31250000 </v>
   <v>       0.50000000       0.12500000      -0.00000000 </v>
   <v>      -0.00000000       0.50000000       0.12500000 </v>
   <v>       0.12500000       0.00000000       0.50000000 </v>
   <v>       0.12500000       0.12500000      -0.37500000 </v>
   <v>      -0.43750000       0.12500000      -0.00000000 </v>
   <v>      -0.00000000      -0.43750000       0.12500000 </v>
   <v>       0.12500000      -0.00000000      -0.43750000 </v>
   <v>       0.12500000       0.12500000      -0.43750000 </v>
   <v>      -0.37500000       0.12500000      -0.00000000 </v>
   <v>      -0.00000000      -0.37500000       0.12500000 </v>
   <v>       0.12500000      -0.00000000      -0.37500000 </v>
   <v>       0.12500000       0.12500000       0.50000000 </v>
   <v>      -0.31250000       0.12500000      -0.00000000 </v>
   <v>      -0.00000000      -0.31250000       0.12500000 </v>
   <v>       0.12500000      -0.00000000      -0.31250000 </v>
   <v>       0.12500000       0.12500000       0.43750000 </v>
   <v>      -0.25000000       0.12500000      -0.00000000 </v>
   <v>      -0.00000000      -0.25000000       0.12500000 </v>
   <v>       0.12500000      -0.00000000      -0.25000000 </v>
   <v>       0.12500000       0.12500000       0.37500000 </v>
   <v>      -0.18750000       0.12500000      -0.00000000 </v>
   <v>      -0.00000000      -0.18750000       0.12500000 </v>
   <v>       0.12500000      -0.00000000      -0.18750000 </v>
   <v>       0.12500000       0.12500000       0.31250000 </v>
   <v>      -0.12500000       0.12500000      -0.00000000 </v>
   <v>      -0.00000000      -0.12500000       0.12500000 </v>
   <v>       0.12500000       0.12500000       0.25000000 </v>
   <v>       0.18750000       0.18750000       0.00000000 </v>
   <v>       0.00000000       0.18750000       0.18750000 </v>
   <v>       0.25000000       0.18750000       0.00000000 </v>
   <v>      -0.00000000       0.25000000       0.18750000 </v>
   <v>       0.18750000      -0.00000000       0.25000000 </v>
   <v>       0.18750000       0.18750000      -0.06250000 </v>
   <v>       0.31250000       0.18750000       0.00000000 </v>
   <v>      -0.00000000       0.31250000       0.18750000 </v>
   <v>       0.18750000       0.00000000       0.31250000 </v>
   <v>       0.18750000       0.18750000      -0.12500000 </v>
   <v>       0.37500000       0.18750000       0.00000000 </v>
   <v>       0.00000000       0.37500000       0.18750000 </v>
   <v>       0.18750000       0.00000000       0.37500000 </v>
   <v>       0.18750000       0.18750000      -0.18750000 </v>
   <v>       0.43750000       0.18750000       0.00000000 </v>
   <v>       0.00000000       0.43750000       0.18750000 </v>
   <v>       0.18750000       0.00000000       0.43750000 </v>
   <v>       0.18750000       0.18750000      -0.25000000 </v>
   <v>       0.50000000       0.18750000       0.00000000 </v>
   <v>       0.00000000       0.50000000       0.18750000 </v>
   <v>       0.18750000       0.00000000       0.50000000 </v>
   <v>       0.18750000       0.18750000      -0.31250000 </v>
   <v>      -0.43750000       0.18750000       0.00000000 </v>
   <v>       0.00000000      -0.43750000       0.18750000 </v>
   <v>       0.18750000      -0.00000000      -0.43750000 </v>
   <v>       0.18750000       0.18750000      -0.37500000 </v>
   <v>      -0.37500000       0.18750000      -0.00000000 </v>
   <v>      -0.00000000      -0.37500000       0.18750000 </v>
   <v>       0.18750000      -0.00000000      -0.37500000 </v>
   <v>       0.18750000       0.18750000      -0.43750000 </v>
   <v>      -0.31250000       0.18750000      -0.00000000 </v>
   <v>       0.00000000      -0.31250000       0.18750000 </v>
   <v>       0.18750000      -0.00000000      -0.31250000 </v>
   <v>       0.18750000       0.18750000       0.50000000 </v>
   <v>      -0.25000000       0.18750000       0.00000000 </v>
   <v>      -0.00000000      -0.25000000       0.18750000 </v>
   <v>       0.18750000      -0.00000000      -0.25000000 </v>
   <v>       0.18750000       0.18750000       0.43750000 </v>
   <v>      -0.18750000       0.18750000      -0.00000000 </v>
   <v>      -0.00000000      -0.18750000       0.18750000 </v>
   <v>       0.18750000       0.18750000       0.37500000 </v>
   <v>       0.25000000       0.25000000       0.00000000 </v>
   <v>      -0.00000000       0.25000000       0.25000000 </v>
   <v>       0.31250000       0.25000000      -0.00000000 </v>
   <v>      -0.00000000       0.31250000       0.25000000 </v>
   <v>       0.25000000      -0.00000000       0.31250000 </v>
   <v>       0.25000000       0.25000000      -0.06250000 </v>
   <v>       0.37500000       0.25000000       0.00000000 </v>
   <v>       0.00000000       0.37500000       0.25000000 </v>
   <v>       0.25000000       0.00000000       0.37500000 </v>
   <v>       0.25000000       0.25000000      -0.12500000 </v>
   <v>       0.43750000       0.25000000       0.00000000 </v>
   <v>       0.00000000       0.43750000       0.25000000 </v>
   <v>       0.25000000       0.00000000       0.43750000 </v>
   <v>       0.25000000       0.25000000      -0.18750000 </v>
   <v>       0.50000000       0.25000000       0.00000000 </v>
   <v>      -0.00000000       0.50000000       0.25000000 </v>
   <v>       0.25000000       0.00000000       0.50000000 </v>
   <v>       0.25000000       0.25000000      -0.25000000 </v>
   <v>      -0.43750000       0.25000000      -0.00000000 </v>
   <v>      -0.00000000      -0.43750000       0.25000000 </v>
   <v>       0.25000000      -0.00000000      -0.43750000 </v>
   <v>       0.25000000       0.25000000      -0.31250000 </v>
   <v>      -0.37500000       0.25000000      -0.00000000 </v>
   <v>      -0.00000000      -0.37500000       0.25000000 </v>
   <v>       0.25000000      -0.00000000      -0.37500000 </v>
   <v>       0.25000000       0.25000000      -0.37500000 </v>
   <v>      -0.31250000       0.25000000      -0.00000000 </v>
   <v>       0.00000000      -0.31250000       0.25000000 </v>
   <v>       0.25000000      -0.00000000      -0.31250000 </v>
   <v>       0.25000000       0.25000000      -0.43750000 </v>
   <v>      -0.25000000       0.25000000      -0.00000000 </v>
   <v>      -0.00000000      -0.25000000       0.25000000 </v>
   <v>       0.25000000       0.25000000       0.50000000 </v>
   <v>       0.31250000       0.31250000      -0.00000000 </v>
   <v>      -0.00000000       0.31250000       0.31250000 </v>
   <v>       0.37500000       0.31250000       0.00000000 </v>
   <v>       0.00000000       0.37500000       0.31250000 </v>
   <v>       0.31250000      -0.00000000       0.37500000 </v>
   <v>       0.31250000       0.31250000      -0.06250000 </v>
   <v>       0.43750000       0.31250000       0.00000000 </v>
   <v>       0.00000000       0.43750000       0.31250000 </v>
   <v>       0.31250000       0.00000000       0.43750000 </v>
   <v>       0.31250000       0.31250000      -0.12500000 </v>
   <v>       0.50000000       0.31250000       0.00000000 </v>
   <v>      -0.00000000       0.50000000       0.31250000 </v>
   <v>       0.31250000       0.00000000       0.50000000 </v>
   <v>       0.31250000       0.31250000      -0.18750000 </v>
   <v>      -0.43750000       0.31250000      -0.00000000 </v>
   <v>      -0.00000000      -0.43750000       0.31250000 </v>
   <v>       0.31250000      -0.00000000      -0.43750000 </v>
   <v>       0.31250000       0.31250000      -0.25000000 </v>
   <v>      -0.37500000       0.31250000      -0.00000000 </v>
   <v>      -0.00000000      -0.37500000       0.31250000 </v>
   <v>       0.31250000      -0.00000000      -0.37500000 </v>
   <v>       0.31250000       0.31250000      -0.31250000 </v>
   <v>      -0.31250000       0.31250000       0.00000000 </v>
   <v>      -0.00000000      -0.31250000       0.31250000 </v>
   <v>       0.31250000       0.31250000      -0.37500000 </v>
   <v>       0.37500000       0.37500000       0.00000000 </v>
   <v>       0.00000000       0.37500000       0.37500000 </v>
   <v>       0.43750000       0.37500000       0.00000000 </v>
   <v>       0.00000000       0.43750000       0.37500000 </v>
   <v>       0.37500000      -0.00000000       0.43750000 </v>
   <v>       0.37500000       0.37500000      -0.06250000 </v>
   <v>       0.50000000       0.37500000       0.00000000 </v>
   <v>      -0.00000000       0.50000000       0.37500000 </v>
   <v>       0.37500000      -0.00000000       0.50000000 </v>
   <v>       0.37500000       0.37500000      -0.12500000 </v>
   <v>      -0.43750000       0.37500000      -0.00000000 </v>
   <v>      -0.00000000      -0.43750000       0.37500000 </v>
   <v>       0.37500000      -0.00000000      -0.43750000 </v>
   <v>       0.37500000       0.37500000      -0.18750000 </v>
   <v>      -0.37500000       0.37500000      -0.00000000 </v>
   <v>      -0.00000000      -0.37500000       0.37500000 </v>
   <v>       0.37500000       0.37500000      -0.25000000 </v>
   <v>       0.43750000       0.43750000       0.00000000 </v>
   <v>      -0.00000000       0.43750000       0.43750000 </v>
   <v>       0.50000000       0.43750000       0.00000000 </v>
   <v>      -0.00000000       0.50000000       0.43750000 </v>
   <v>       0.43750000      -0.00000000       0.50000000 </v>
   <v>       0.43750000       0.43750000      -0.06250000 </v>
   <v>      -0.43750000       0.43750000      -0.00000000 </v>
   <v>      -0.00000000      -0.43750000       0.43750000 </v>
   <v>       0.43750000       0.43750000      -0.12500000 </v>
   <v>       0.50000000       0.50000000       0.00000000 </v>
   <v>      -0.00000000       0.50000000       0.50000000 </v>
   <v>       0.18750000       0.12500000       0.06250000 </v>
   <v>       0.06250000       0.18750000       0.12500000 </v>
   <v>       0.12500000       0.06250000       0.18750000 </v>
   <v>       0.06250000      -0.12500000      -0.06250000 </v>
   <v>       0.25000000       0.12500000       0.06250000 </v>
   <v>       0.06250000       0.25000000       0.12500000 </v>
   <v>       0.12500000       0.06250000       0.25000000 </v>
   <v>       0.12500000       0.06250000      -0.12500000 </v>
   <v>       0.25000000       0.12500000       0.18750000 </v>
   <v>       0.06250000      -0.18750000      -0.06250000 </v>
   <v>       0.31250000       0.12500000       0.06250000 </v>
   <v>       0.06250000       0.31250000       0.12500000 </v>
   <v>       0.12500000       0.06250000       0.31250000 </v>
   <v>       0.12500000       0.06250000      -0.18750000 </v>
   <v>       0.31250000       0.18750000       0.25000000 </v>
   <v>       0.06250000      -0.25000000      -0.06250000 </v>
   <v>       0.37500000       0.12500000       0.06250000 </v>
   <v>       0.06250000       0.37500000       0.12500000 </v>
   <v>       0.12500000       0.06250000       0.37500000 </v>
   <v>       0.12500000       0.06250000      -0.25000000 </v>
   <v>       0.37500000       0.25000000       0.31250000 </v>
   <v>       0.06250000      -0.31250000      -0.06250000 </v>
   <v>       0.43750000       0.12500000       0.06250000 </v>
   <v>       0.06250000       0.43750000       0.12500000 </v>
   <v>       0.12500000       0.06250000       0.43750000 </v>
   <v>       0.12500000       0.06250000      -0.31250000 </v>
   <v>       0.43750000       0.31250000       0.37500000 </v>
   <v>       0.06250000      -0.37500000      -0.06250000 </v>
   <v>       0.50000000       0.12500000       0.06250000 </v>
   <v>       0.06250000       0.50000000       0.12500000 </v>
   <v>       0.12500000       0.06250000       0.50000000 </v>
   <v>       0.12500000       0.06250000      -0.37500000 </v>
   <v>       0.50000000       0.37500000       0.43750000 </v>
   <v>       0.06250000      -0.43750000      -0.06250000 </v>
   <v>      -0.43750000       0.12500000       0.06250000 </v>
   <v>       0.06250000      -0.43750000       0.12500000 </v>
   <v>       0.12500000       0.06250000      -0.43750000 </v>
   <v>      -0.43750000       0.43750000       0.50000000 </v>
   <v>       0.25000000       0.18750000       0.06250000 </v>
   <v>       0.06250000       0.25000000       0.18750000 </v>
   <v>       0.18750000       0.06250000       0.25000000 </v>
   <v>       0.06250000      -0.18750000      -0.12500000 </v>
   <v>       0.31250000       0.18750000       0.06250000 </v>
   <v>       0.06250000       0.31250000       0.18750000 </v>
   <v>       0.18750000       0.06250000       0.31250000 </v>
   <v>       0.18750000       0.12500000      -0.12500000 </v>
   <v>       0.31250000       0.12500000       0.25000000 </v>
   <v>       0.06250000      -0.25000000      -0.12500000 </v>
   <v>       0.37500000       0.18750000       0.06250000 </v>
   <v>       0.06250000       0.37500000       0.18750000 </v>
   <v>       0.18750000       0.06250000       0.37500000 </v>
   <v>       0.18750000       0.12500000      -0.18750000 </v>
   <v>       0.37500000       0.18750000       0.31250000 </v>
   <v>       0.06250000      -0.31250000      -0.12500000 </v>
   <v>       0.43750000       0.18750000       0.06250000 </v>
   <v>       0.06250000       0.43750000       0.18750000 </v>
   <v>       0.18750000       0.06250000       0.43750000 </v>
   <v>       0.18750000       0.12500000      -0.25000000 </v>
   <v>       0.43750000       0.25000000       0.37500000 </v>
   <v>       0.06250000      -0.37500000      -0.12500000 </v>
   <v>       0.50000000       0.18750000       0.06250000 </v>
   <v>       0.06250000       0.50000000       0.18750000 </v>
   <v>       0.18750000       0.06250000       0.50000000 </v>
   <v>       0.18750000       0.12500000      -0.31250000 </v>
   <v>       0.50000000       0.31250000       0.43750000 </v>
   <v>       0.06250000      -0.43750000      -0.12500000 </v>
   <v>      -0.43750000       0.18750000       0.06250000 </v>
   <v>       0.06250000      -0.43750000       0.18750000 </v>
   <v>       0.18750000       0.06250000      -0.43750000 </v>
   <v>       0.18750000       0.12500000      -0.37500000 </v>
   <v>      -0.43750000       0.37500000       0.50000000 </v>
   <v>       0.06250000       0.50000000      -0.12500000 </v>
   <v>      -0.37500000       0.18750000       0.06250000 </v>
   <v>       0.06250000      -0.37500000       0.18750000 </v>
   <v>       0.18750000       0.06250000      -0.37500000 </v>
   <v>       0.18750000       0.12500000      -0.43750000 </v>
   <v>      -0.37500000       0.43750000      -0.43750000 </v>
   <v>       0.06250000       0.43750000      -0.12500000 </v>
   <v>      -0.31250000       0.18750000       0.06250000 </v>
   <v>       0.06250000      -0.31250000       0.18750000 </v>
   <v>       0.18750000       0.06250000      -0.31250000 </v>
   <v>       0.18750000       0.12500000       0.50000000 </v>
   <v>      -0.31250000       0.50000000      -0.37500000 </v>
   <v>       0.06250000       0.37500000      -0.12500000 </v>
   <v>      -0.25000000       0.18750000       0.06250000 </v>
   <v>       0.06250000      -0.25000000       0.18750000 </v>
   <v>       0.18750000       0.06250000      -0.25000000 </v>
   <v>       0.18750000       0.12500000       0.43750000 </v>
   <v>      -0.25000000      -0.43750000      -0.31250000 </v>
   <v>       0.06250000       0.31250000      -0.12500000 </v>
   <v>      -0.18750000       0.18750000       0.06250000 </v>
   <v>       0.06250000      -0.18750000       0.18750000 </v>
   <v>       0.18750000       0.06250000      -0.18750000 </v>
   <v>       0.18750000       0.12500000       0.37500000 </v>
   <v>      -0.18750000      -0.37500000      -0.25000000 </v>
   <v>       0.06250000       0.25000000      -0.12500000 </v>
   <v>      -0.12500000       0.18750000       0.06250000 </v>
   <v>       0.06250000      -0.12500000       0.18750000 </v>
   <v>       0.18750000       0.06250000      -0.12500000 </v>
   <v>       0.18750000       0.12500000       0.31250000 </v>
   <v>       0.31250000       0.25000000       0.06250000 </v>
   <v>       0.06250000       0.31250000       0.25000000 </v>
   <v>       0.25000000       0.06250000       0.31250000 </v>
   <v>       0.06250000      -0.25000000      -0.18750000 </v>
   <v>       0.37500000       0.25000000       0.06250000 </v>
   <v>       0.06250000       0.37500000       0.25000000 </v>
   <v>       0.25000000       0.06250000       0.37500000 </v>
   <v>       0.25000000       0.18750000      -0.12500000 </v>
   <v>       0.37500000       0.12500000       0.31250000 </v>
   <v>       0.06250000      -0.31250000      -0.18750000 </v>
   <v>       0.43750000       0.25000000       0.06250000 </v>
   <v>       0.06250000       0.43750000       0.25000000 </v>
   <v>       0.25000000       0.06250000       0.43750000 </v>
   <v>       0.25000000       0.18750000      -0.18750000 </v>
   <v>       0.43750000       0.18750000       0.37500000 </v>
   <v>       0.06250000      -0.37500000      -0.18750000 </v>
   <v>       0.50000000       0.25000000       0.06250000 </v>
   <v>       0.06250000       0.50000000       0.25000000 </v>
   <v>       0.25000000       0.06250000       0.50000000 </v>
   <v>       0.25000000       0.18750000      -0.25000000 </v>
   <v>       0.50000000       0.25000000       0.43750000 </v>
   <v>       0.06250000      -0.43750000      -0.18750000 </v>
   <v>      -0.43750000       0.25000000       0.06250000 </v>
   <v>       0.06250000      -0.43750000       0.25000000 </v>
   <v>       0.25000000       0.06250000      -0.43750000 </v>
   <v>       0.25000000       0.18750000      -0.31250000 </v>
   <v>      -0.43750000       0.31250000       0.50000000 </v>
   <v>       0.06250000       0.50000000      -0.18750000 </v>
   <v>      -0.37500000       0.25000000       0.06250000 </v>
   <v>       0.06250000      -0.37500000       0.25000000 </v>
   <v>       0.25000000       0.06250000      -0.37500000 </v>
   <v>       0.25000000       0.18750000      -0.37500000 </v>
   <v>      -0.37500000       0.37500000      -0.43750000 </v>
   <v>       0.06250000       0.43750000      -0.18750000 </v>
   <v>      -0.31250000       0.25000000       0.06250000 </v>
   <v>       0.06250000      -0.31250000       0.25000000 </v>
   <v>       0.25000000       0.06250000      -0.31250000 </v>
   <v>       0.25000000       0.18750000      -0.43750000 </v>
   <v>      -0.31250000       0.43750000      -0.37500000 </v>
   <v>       0.06250000       0.37500000      -0.18750000 </v>
   <v>      -0.25000000       0.25000000       0.06250000 </v>
   <v>       0.06250000      -0.25000000       0.25000000 </v>
   <v>       0.25000000       0.06250000      -0.25000000 </v>
   <v>       0.25000000       0.18750000       0.50000000 </v>
   <v>      -0.25000000       0.50000000      -0.31250000 </v>
   <v>       0.06250000       0.31250000      -0.18750000 </v>
   <v>      -0.18750000       0.25000000       0.06250000 </v>
   <v>       0.06250000      -0.18750000       0.25000000 </v>
   <v>       0.25000000       0.06250000      -0.18750000 </v>
   <v>       0.25000000       0.18750000       0.43750000 </v>
   <v>       0.37500000       0.31250000       0.06250000 </v>
   <v>       0.06250000       0.37500000       0.31250000 </v>
   <v>       0.31250000       0.06250000       0.37500000 </v>
   <v>       0.06250000      -0.31250000      -0.25000000 </v>
   <v>       0.43750000       0.31250000       0.06250000 </v>
   <v>       0.06250000       0.43750000       0.31250000 </v>
   <v>       0.31250000       0.06250000       0.43750000 </v>
   <v>       0.31250000       0.25000000      -0.12500000 </v>
   <v>       0.43750000       0.12500000       0.37500000 </v>
   <v>       0.06250000      -0.37500000      -0.25000000 </v>
   <v>       0.50000000       0.31250000       0.06250000 </v>
   <v>       0.06250000       0.50000000       0.31250000 </v>
   <v>       0.31250000       0.06250000       0.50000000 </v>
   <v>       0.31250000       0.25000000      -0.18750000 </v>
   <v>       0.50000000       0.18750000       0.43750000 </v>
   <v>       0.06250000      -0.43750000      -0.25000000 </v>
   <v>      -0.43750000       0.31250000       0.06250000 </v>
   <v>       0.06250000      -0.43750000       0.31250000 </v>
   <v>       0.31250000       0.06250000      -0.43750000 </v>
   <v>       0.31250000       0.25000000      -0.25000000 </v>
   <v>      -0.43750000       0.25000000       0.50000000 </v>
   <v>       0.06250000       0.50000000      -0.25000000 </v>
   <v>      -0.37500000       0.31250000       0.06250000 </v>
   <v>       0.06250000      -0.37500000       0.31250000 </v>
   <v>       0.31250000       0.06250000      -0.37500000 </v>
   <v>       0.31250000       0.25000000      -0.31250000 </v>
   <v>      -0.37500000       0.31250000      -0.43750000 </v>
   <v>       0.06250000       0.43750000      -0.25000000 </v>
   <v>      -0.31250000       0.31250000       0.06250000 </v>
   <v>       0.06250000      -0.31250000       0.31250000 </v>
   <v>       0.31250000       0.06250000      -0.31250000 </v>
   <v>       0.31250000       0.25000000      -0.37500000 </v>
   <v>      -0.31250000       0.37500000      -0.37500000 </v>
   <v>       0.06250000       0.37500000      -0.25000000 </v>
   <v>      -0.25000000       0.31250000       0.06250000 </v>
   <v>       0.06250000      -0.25000000       0.31250000 </v>
   <v>       0.31250000       0.06250000      -0.25000000 </v>
   <v>       0.31250000       0.25000000      -0.43750000 </v>
   <v>       0.43750000       0.37500000       0.06250000 </v>
   <v>       0.06250000       0.43750000       0.37500000 </v>
   <v>       0.37500000       0.06250000       0.43750000 </v>
   <v>       0.06250000      -0.37500000      -0.31250000 </v>
   <v>       0.50000000       0.37500000       0.06250000 </v>
   <v>       0.06250000       0.50000000       0.37500000 </v>
   <v>       0.37500000       0.06250000       0.50000000 </v>
   <v>       0.37500000       0.31250000      -0.12500000 </v>
   <v>       0.50000000       0.12500000       0.43750000 </v>
   <v>       0.06250000      -0.43750000      -0.31250000 </v>
   <v>      -0.43750000       0.37500000       0.06250000 </v>
   <v>       0.06250000      -0.43750000       0.37500000 </v>
   <v>       0.37500000       0.06250000      -0.43750000 </v>
   <v>       0.37500000       0.31250000      -0.18750000 </v>
   <v>      -0.43750000       0.18750000       0.50000000 </v>
   <v>       0.06250000       0.50000000      -0.31250000 </v>
   <v>      -0.37500000       0.37500000       0.06250000 </v>
   <v>       0.06250000      -0.37500000       0.37500000 </v>
   <v>       0.37500000       0.06250000      -0.37500000 </v>
   <v>       0.37500000       0.31250000      -0.25000000 </v>
   <v>      -0.37500000       0.25000000      -0.43750000 </v>
   <v>       0.06250000       0.43750000      -0.31250000 </v>
   <v>      -0.31250000       0.37500000       0.06250000 </v>
   <v>       0.06250000      -0.31250000       0.37500000 </v>
   <v>       0.37500000       0.06250000      -0.31250000 </v>
   <v>       0.37500000       0.31250000      -0.31250000 </v>
   <v>       0.50000000       0.43750000       0.06250000 </v>
   <v>       0.06250000       0.50000000       0.43750000 </v>
   <v>       0.43750000       0.06250000       0.50000000 </v>
   <v>       0.06250000      -0.43750000      -0.37500000 </v>
   <v>      -0.43750000       0.43750000       0.06250000 </v>
   <v>       0.06250000      -0.43750000       0.43750000 </v>
   <v>       0.43750000       0.06250000      -0.43750000 </v>
   <v>       0.43750000       0.37500000      -0.12500000 </v>
   <v>      -0.43750000       0.12500000       0.50000000 </v>
   <v>       0.06250000       0.50000000      -0.37500000 </v>
   <v>      -0.37500000       0.43750000       0.06250000 </v>
   <v>       0.06250000      -0.37500000       0.43750000 </v>
   <v>       0.43750000       0.06250000      -0.37500000 </v>
   <v>       0.43750000       0.37500000      -0.18750000 </v>
   <v>      -0.43750000       0.50000000       0.06250000 </v>
   <v>       0.06250000      -0.43750000       0.50000000 </v>
   <v>       0.50000000       0.06250000      -0.43750000 </v>
   <v>       0.37500000       0.25000000       0.12500000 </v>
   <v>       0.12500000       0.37500000       0.25000000 </v>
   <v>       0.25000000       0.12500000       0.37500000 </v>
   <v>       0.12500000      -0.25000000      -0.12500000 </v>
   <v>       0.43750000       0.25000000       0.12500000 </v>
   <v>       0.12500000       0.43750000       0.25000000 </v>
   <v>       0.25000000       0.12500000       0.43750000 </v>
   <v>       0.25000000       0.12500000      -0.18750000 </v>
   <v>       0.43750000       0.18750000       0.31250000 </v>
   <v>       0.12500000      -0.31250000      -0.12500000 </v>
   <v>       0.50000000       0.25000000       0.12500000 </v>
   <v>       0.12500000       0.50000000       0.25000000 </v>
   <v>       0.25000000       0.12500000       0.50000000 </v>
   <v>       0.25000000       0.12500000      -0.25000000 </v>
   <v>       0.50000000       0.25000000       0.37500000 </v>
   <v>       0.12500000      -0.37500000      -0.12500000 </v>
   <v>      -0.43750000       0.25000000       0.12500000 </v>
   <v>       0.12500000      -0.43750000       0.25000000 </v>
   <v>       0.25000000       0.12500000      -0.43750000 </v>
   <v>       0.25000000       0.12500000      -0.31250000 </v>
   <v>      -0.43750000       0.31250000       0.43750000 </v>
   <v>       0.12500000      -0.43750000      -0.12500000 </v>
   <v>      -0.37500000       0.25000000       0.12500000 </v>
   <v>       0.12500000      -0.37500000       0.25000000 </v>
   <v>       0.25000000       0.12500000      -0.37500000 </v>
   <v>      -0.37500000       0.37500000       0.50000000 </v>
   <v>       0.43750000       0.31250000       0.12500000 </v>
   <v>       0.12500000       0.43750000       0.31250000 </v>
   <v>       0.31250000       0.12500000       0.43750000 </v>
   <v>       0.12500000      -0.31250000      -0.18750000 </v>
   <v>       0.50000000       0.31250000       0.12500000 </v>
   <v>       0.12500000       0.50000000       0.31250000 </v>
   <v>       0.31250000       0.12500000       0.50000000 </v>
   <v>       0.31250000       0.18750000      -0.18750000 </v>
   <v>       0.50000000       0.18750000       0.37500000 </v>
   <v>       0.12500000      -0.37500000      -0.18750000 </v>
   <v>      -0.43750000       0.31250000       0.12500000 </v>
   <v>       0.12500000      -0.43750000       0.31250000 </v>
   <v>       0.31250000       0.12500000      -0.43750000 </v>
   <v>       0.31250000       0.18750000      -0.25000000 </v>
   <v>      -0.43750000       0.25000000       0.43750000 </v>
   <v>       0.12500000      -0.43750000      -0.18750000 </v>
   <v>      -0.37500000       0.31250000       0.12500000 </v>
   <v>       0.12500000      -0.37500000       0.31250000 </v>
   <v>       0.31250000       0.12500000      -0.37500000 </v>
   <v>       0.31250000       0.18750000      -0.31250000 </v>
   <v>      -0.37500000       0.31250000       0.50000000 </v>
   <v>       0.12500000       0.50000000      -0.18750000 </v>
   <v>      -0.31250000       0.31250000       0.12500000 </v>
   <v>       0.12500000      -0.31250000       0.31250000 </v>
   <v>       0.31250000       0.12500000      -0.31250000 </v>
   <v>       0.31250000       0.18750000      -0.37500000 </v>
   <v>      -0.31250000       0.37500000      -0.43750000 </v>
   <v>       0.12500000       0.43750000      -0.18750000 </v>
   <v>      -0.25000000       0.31250000       0.12500000 </v>
   <v>       0.12500000      -0.25000000       0.31250000 </v>
   <v>       0.31250000       0.12500000      -0.25000000 </v>
   <v>       0.31250000       0.18750000      -0.43750000 </v>
   <v>      -0.25000000       0.43750000      -0.37500000 </v>
   <v>       0.12500000       0.37500000      -0.18750000 </v>
   <v>      -0.18750000       0.31250000       0.12500000 </v>
   <v>       0.12500000      -0.18750000       0.31250000 </v>
   <v>       0.31250000       0.12500000      -0.18750000 </v>
   <v>       0.31250000       0.18750000       0.50000000 </v>
   <v>       0.50000000       0.37500000       0.12500000 </v>
   <v>       0.12500000       0.50000000       0.37500000 </v>
   <v>       0.37500000       0.12500000       0.50000000 </v>
   <v>       0.12500000      -0.37500000      -0.25000000 </v>
   <v>      -0.43750000       0.37500000       0.12500000 </v>
   <v>       0.12500000      -0.43750000       0.37500000 </v>
   <v>       0.37500000       0.12500000      -0.43750000 </v>
   <v>       0.37500000       0.25000000      -0.18750000 </v>
   <v>      -0.43750000       0.18750000       0.43750000 </v>
   <v>       0.12500000      -0.43750000      -0.25000000 </v>
   <v>      -0.37500000       0.37500000       0.12500000 </v>
   <v>       0.12500000      -0.37500000       0.37500000 </v>
   <v>       0.37500000       0.12500000      -0.37500000 </v>
   <v>       0.37500000       0.25000000      -0.25000000 </v>
   <v>      -0.37500000       0.25000000       0.50000000 </v>
   <v>       0.12500000       0.50000000      -0.25000000 </v>
   <v>      -0.31250000       0.37500000       0.12500000 </v>
   <v>       0.12500000      -0.31250000       0.37500000 </v>
   <v>       0.37500000       0.12500000      -0.31250000 </v>
   <v>       0.37500000       0.25000000      -0.31250000 </v>
   <v>      -0.31250000       0.31250000      -0.43750000 </v>
   <v>       0.12500000       0.43750000      -0.25000000 </v>
   <v>      -0.25000000       0.37500000       0.12500000 </v>
   <v>       0.12500000      -0.25000000       0.37500000 </v>
   <v>       0.37500000       0.12500000      -0.25000000 </v>
   <v>       0.37500000       0.25000000      -0.37500000 </v>
   <v>      -0.43750000       0.43750000       0.12500000 </v>
   <v>       0.12500000      -0.43750000       0.43750000 </v>
   <v>       0.43750000       0.12500000      -0.43750000 </v>
   <v>       0.12500000      -0.43750000      -0.31250000 </v>
   <v>      -0.37500000       0.43750000       0.12500000 </v>
   <v>       0.12500000      -0.37500000       0.43750000 </v>
   <v>       0.43750000       0.12500000      -0.37500000 </v>
   <v>       0.43750000       0.31250000      -0.18750000 </v>
   <v>      -0.37500000       0.18750000       0.50000000 </v>
   <v>       0.12500000       0.50000000      -0.31250000 </v>
   <v>      -0.31250000       0.43750000       0.12500000 </v>
   <v>       0.12500000      -0.31250000       0.43750000 </v>
   <v>       0.43750000       0.12500000      -0.31250000 </v>
   <v>       0.43750000       0.31250000      -0.25000000 </v>
   <v>      -0.37500000       0.50000000       0.12500000 </v>
   <v>       0.12500000      -0.37500000       0.50000000 </v>
   <v>       0.50000000       0.12500000      -0.37500000 </v>
   <v>      -0.43750000       0.37500000       0.18750000 </v>
   <v>       0.18750000      -0.43750000       0.37500000 </v>
   <v>       0.37500000       0.18750000      -0.43750000 </v>
   <v>       0.18750000      -0.37500000      -0.18750000 </v>
   <v>      -0.37500000       0.37500000       0.18750000 </v>
   <v>       0.18750000      -0.37500000       0.37500000 </v>
   <v>       0.37500000       0.18750000      -0.37500000 </v>
   <v>       0.37500000       0.18750000      -0.25000000 </v>
   <v>      -0.37500000       0.25000000       0.43750000 </v>
   <v>       0.18750000      -0.43750000      -0.18750000 </v>
   <v>      -0.31250000       0.37500000       0.18750000 </v>
   <v>       0.18750000      -0.31250000       0.37500000 </v>
   <v>       0.37500000       0.18750000      -0.31250000 </v>
   <v>      -0.31250000       0.31250000       0.50000000 </v>
   <v>      -0.37500000       0.43750000       0.18750000 </v>
   <v>       0.18750000      -0.37500000       0.43750000 </v>
   <v>       0.43750000       0.18750000      -0.37500000 </v>
   <v>       0.18750000      -0.43750000      -0.25000000 </v>
   <v>      -0.31250000       0.43750000       0.18750000 </v>
   <v>       0.18750000      -0.31250000       0.43750000 </v>
   <v>       0.43750000       0.18750000      -0.31250000 </v>
   <v>       0.43750000       0.25000000      -0.25000000 </v>
   <v>      -0.31250000       0.25000000       0.50000000 </v>
   <v>       0.18750000       0.50000000      -0.25000000 </v>
   <v>      -0.25000000       0.43750000       0.18750000 </v>
   <v>       0.18750000      -0.25000000       0.43750000 </v>
   <v>       0.43750000       0.18750000      -0.25000000 </v>
   <v>       0.43750000       0.25000000      -0.31250000 </v>
   <v>      -0.31250000       0.50000000       0.18750000 </v>
   <v>       0.18750000      -0.31250000       0.50000000 </v>
   <v>       0.50000000       0.18750000      -0.31250000 </v>
   <v>      -0.25000000       0.50000000       0.25000000 </v>
   <v>       0.25000000      -0.25000000       0.50000000 </v>
  </varray>
  <varray name="weights" >
   <v>       0.00024414 </v>
   <v>       0.00097656 </v>
   <v>       0.00097656 </v>
   <v>       0.00097656 </v>
   <v>       0.00097656 </v>
   <v>       0.00097656 </v>
   <v>       0.00097656 </v>
   <v>       0.00097656 </v>
   <v>       0.00097656 </v>
   <v>       0.00097656 </v>
   <v>       0.00097656 </v>
   <v>       0.00097656 </v>
   <v>       0.00097656 </v>
   <v>       0.00097656 </v>
   <v>       0.00097656 </v>
   <v>       0.00048828 </v>
   <v>       0.00048828 </v>
   <v>       0.00048828 </v>
   <v>       0.00097656 </v>
   <v>       0.00097656 </v>
   <v>       0.00195312 </v>
   <v>       0.00195312 </v>
   <v>       0.00097656 </v>
   <v>       0.00097656 </v>
   <v>       0.00195312 </v>
   <v>       0.00195312 </v>
   <v>       0.00097656 </v>
   <v>       0.00097656 </v>
   <v>       0.00195312 </v>
   <v>       0.00195312 </v>
   <v>       0.00097656 </v>
   <v>       0.00097656 </v>
   <v>       0.00195312 </v>
   <v>       0.00195312 </v>
   <v>       0.00097656 </v>
   <v>       0.00097656 </v>
   <v>       0.00195312 </v>
   <v>       0.00195312 </v>
   <v>       0.00097656 </v>
   <v>       0.00097656 </v>
   <v>       0.00195312 </v>
   <v>       0.00195312 </v>
   <v>       0.00097656 </v>
   <v>       0.00097656 </v>
   <v>       0.00195312 </v>
   <v>       0.00195312 </v>
   <v>       0.00097656 </v>
   <v>       0.00097656 </v>
   <v>       0.00195312 </v>
   <v>       0.00195312 </v>
   <v>       0.00097656 </v>
   <v>       0.00097656 </v>
   <v>       0.00195312 </v>
   <v>       0.00195312 </v>
   <v>       0.00097656 </v>
   <v>       0.00097656 </v>
   <v>       0.00195312 </v>
   <v>       0.00195312 </v>
   <v>       0.00097656 </v>
   <v>       0.00097656 </v>
   <v>       0.00195312 </v>
   <v>       0.00195312 </v>
   <v>       0.00097656 </v>
   <v>       0.00097656 </v>
   <v>       0.00195312 </v>
   <v>       0.00195312 </v>
   <v>       0.00097656 </v>
   <v>       0.00097656 </v>
   <v>       0.00195312 </v>
   <v>       0.00195312 </v>
   <v>       0.00097656 </v>
   <v>       0.00048828 </v>
   <v>       0.00195312 </v>
   <v>       0.00048828 </v>
   <v>       0.00048828 </v>
   <v>       0.00097656 </v>
   <v>       0.00097656 </v>
   <v>       0.00195312 </v>
   <v>       0.00195312 </v>
   <v>       0.00097656 </v>
   <v>       0.00097656 </v>
   <v>       0.00195312 </v>
   <v>       0.00195312 </v>
   <v>       0.00097656 </v>
   <v>       0.00097656 </v>
   <v>       0.00195312 </v>
   <v>       0.00195312 </v>
   <v>       0.00097656 </v>
   <v>       0.00097656 </v>
   <v>       0.00195312 </v>
   <v>       0.00195312 </v>
   <v>       0.00097656 </v>
   <v>       0.00097656 </v>
   <v>       0.00195312 </v>
   <v>       0.00195312 </v>
   <v>       0.00097656 </v>
   <v>       0.00097656 </v>
   <v>       0.00195312 </v>
   <v>       0.00195312 </v>
   <v>       0.00097656 </v>
   <v>       0.00097656 </v>
   <v>       0.00195312 </v>
   <v>       0.00195312 </v>
   <v>       0.00097656 </v>
   <v>       0.00097656 </v>
   <v>       0.00195312 </v>
   <v>       0.00195312 </v>
   <v>       0.00097656 </v>
   <v>       0.00097656 </v>
   <v>       0.00195312 </v>
   <v>       0.00195312 </v>
   <v>       0.00097656 </v>
   <v>       0.00097656 </v>
   <v>       0.00195312 </v>
   <v>       0.00195312 </v>
   <v>       0.00097656 </v>
   <v>       0.00097656 </v>
   <v>       0.00195312 </v>
   <v>       0.00195312 </v>
   <v>       0.00097656 </v>
   <v>       0.00048828 </v>
   <v>       0.00195312 </v>
   <v>       0.00048828 </v>
   <v>       0.00048828 </v>
   <v>       0.00097656 </v>
   <v>       0.00097656 </v>
   <v>       0.00195312 </v>
   <v>       0.00195312 </v>
   <v>       0.00097656 </v>
   <v>       0.00097656 </v>
   <v>       0.00195312 </v>
   <v>       0.00195312 </v>
   <v>       0.00097656 </v>
   <v>       0.00097656 </v>
   <v>       0.00195312 </v>
   <v>       0.00195312 </v>
   <v>       0.00097656 </v>
   <v>       0.00097656 </v>
   <v>       0.00195312 </v>
   <v>       0.00195312 </v>
   <v>       0.00097656 </v>
   <v>       0.00097656 </v>
   <v>       0.00195312 </v>
   <v>       0.00195312 </v>
   <v>       0.00097656 </v>
   <v>       0.00097656 </v>
   <v>       0.00195312 </v>
   <v>       0.00195312 </v>
   <v>       0.00097656 </v>
   <v>       0.00097656 </v>
   <v>       0.00195312 </v>
   <v>       0.00195312 </v>
   <v>       0.00097656 </v>
   <v>       0.00097656 </v>
   <v>       0.00195312 </v>
   <v>       0.00195312 </v>
   <v>       0.00097656 </v>
   <v>       0.00097656 </v>
   <v>       0.00195312 </v>
   <v>       0.00195312 </v>
   <v>       0.00097656 </v>
   <v>       0.00048828 </v>
   <v>       0.00195312 </v>
   <v>       0.00048828 </v>
   <v>       0.00048828 </v>
   <v>       0.00097656 </v>
   <v>       0.00097656 </v>
   <v>       0.00195312 </v>
   <v>       0.00195312 </v>
   <v>       0.00097656 </v>
   <v>       0.00097656 </v>
   <v>       0.00195312 </v>
   <v>       0.00195312 </v>
   <v>       0.00097656 </v>
   <v>       0.00097656 </v>
   <v>       0.00195312 </v>
   <v>       0.00195312 </v>
   <v>       0.00097656 </v>
   <v>       0.00097656 </v>
   <v>       0.00195312 </v>
   <v>       0.00195312 </v>
   <v>       0.00097656 </v>
   <v>       0.00097656 </v>
   <v>       0.00195312 </v>
   <v>       0.00195312 </v>
   <v>       0.00097656 </v>
   <v>       0.00097656 </v>
   <v>       0.00195312 </v>
   <v>       0.00195312 </v>
   <v>       0.00097656 </v>
   <v>       0.00097656 </v>
   <v>       0.00195312 </v>
   <v>       0.00195312 </v>
   <v>       0.00097656 </v>
   <v>       0.00048828 </v>
   <v>       0.00195312 </v>
   <v>       0.00048828 </v>
   <v>       0.00048828 </v>
   <v>       0.00097656 </v>
   <v>       0.00097656 </v>
   <v>       0.00195312 </v>
   <v>       0.00195312 </v>
   <v>       0.00097656 </v>
   <v>       0.00097656 </v>
   <v>       0.00195312 </v>
   <v>       0.00195312 </v>
   <v>       0.00097656 </v>
   <v>       0.00097656 </v>
   <v>       0.00195312 </v>
   <v>       0.00195312 </v>
   <v>       0.00097656 </v>
   <v>       0.00097656 </v>
   <v>       0.00195312 </v>
   <v>       0.00195312 </v>
   <v>       0.00097656 </v>
   <v>       0.00097656 </v>
   <v>       0.00195312 </v>
   <v>       0.00195312 </v>
   <v>       0.00097656 </v>
   <v>       0.00048828 </v>
   <v>       0.00195312 </v>
   <v>       0.00048828 </v>
   <v>       0.00048828 </v>
   <v>       0.00097656 </v>
   <v>       0.00097656 </v>
   <v>       0.00195312 </v>
   <v>       0.00195312 </v>
   <v>       0.00097656 </v>
   <v>       0.00097656 </v>
   <v>       0.00195312 </v>
   <v>       0.00195312 </v>
   <v>       0.00097656 </v>
   <v>       0.00097656 </v>
   <v>       0.00195312 </v>
   <v>       0.00195312 </v>
   <v>       0.00097656 </v>
   <v>       0.00048828 </v>
   <v>       0.00195312 </v>
   <v>       0.00048828 </v>
   <v>       0.00048828 </v>
   <v>       0.00097656 </v>
   <v>       0.00097656 </v>
   <v>       0.00195312 </v>
   <v>       0.00195312 </v>
   <v>       0.00097656 </v>
   <v>       0.00048828 </v>
   <v>       0.00195312 </v>
   <v>       0.00048828 </v>
   <v>       0.00024414 </v>
   <v>       0.00048828 </v>
   <v>       0.00195312 </v>
   <v>       0.00195312 </v>
   <v>       0.00097656 </v>
   <v>       0.00097656 </v>
   <v>       0.00195312 </v>
   <v>       0.00195312 </v>
   <v>       0.00195312 </v>
   <v>       0.00195312 </v>
   <v>       0.00195312 </v>
   <v>       0.00195312 </v>
   <v>       0.00195312 </v>
   <v>       0.00195312 </v>
   <v>       0.00195312 </v>
   <v>       0.00195312 </v>
   <v>       0.00195312 </v>
   <v>       0.00195312 </v>
   <v>       0.00195312 </v>
   <v>       0.00195312 </v>
   <v>       0.00195312 </v>
   <v>       0.00195312 </v>
   <v>       0.00195312 </v>
   <v>       0.00195312 </v>
   <v>       0.00195312 </v>
   <v>       0.00195312 </v>
   <v>       0.00195312 </v>
   <v>       0.00195312 </v>
   <v>       0.00195312 </v>
   <v>       0.00195312 </v>
   <v>       0.00195312 </v>
   <v>       0.00195312 </v>
   <v>       0.00195312 </v>
   <v>       0.00195312 </v>
   <v>       0.00195312 </v>
   <v>       0.00195312 </v>
   <v>       0.00195312 </v>
   <v>       0.00097656 </v>
   <v>       0.00195312 </v>
   <v>       0.00097656 </v>
   <v>       0.00195312 </v>
   <v>       0.00195312 </v>
   <v>       0.00097656 </v>
   <v>       0.00097656 </v>
   <v>       0.00195312 </v>
   <v>       0.00195312 </v>
   <v>       0.00195312 </v>
   <v>       0.00195312 </v>
   <v>       0.00195312 </v>
   <v>       0.00195312 </v>
   <v>       0.00195312 </v>
   <v>       0.00195312 </v>
   <v>       0.00195312 </v>
   <v>       0.00195312 </v>
   <v>       0.00195312 </v>
   <v>       0.00195312 </v>
   <v>       0.00195312 </v>
   <v>       0.00195312 </v>
   <v>       0.00195312 </v>
   <v>       0.00195312 </v>
   <v>       0.00195312 </v>
   <v>       0.00195312 </v>
   <v>       0.00195312 </v>
   <v>       0.00195312 </v>
   <v>       0.00195312 </v>
   <v>       0.00195312 </v>
   <v>       0.00195312 </v>
   <v>       0.00195312 </v>
   <v>       0.00195312 </v>
   <v>       0.00195312 </v>
   <v>       0.00195312 </v>
   <v>       0.00195312 </v>
   <v>       0.00195312 </v>
   <v>       0.00195312 </v>
   <v>       0.00195312 </v>
   <v>       0.00195312 </v>
   <v>       0.00195312 </v>
   <v>       0.00195312 </v>
   <v>       0.00195312 </v>
   <v>       0.00195312 </v>
   <v>       0.00195312 </v>
   <v>       0.00195312 </v>
   <v>       0.00195312 </v>
   <v>       0.00195312 </v>
   <v>       0.00195312 </v>
   <v>       0.00195312 </v>
   <v>       0.00195312 </v>
   <v>       0.00195312 </v>
   <v>       0.00195312 </v>
   <v>       0.00195312 </v>
   <v>       0.00195312 </v>
   <v>       0.00195312 </v>
   <v>       0.00195312 </v>
   <v>       0.00195312 </v>
   <v>       0.00195312 </v>
   <v>       0.00195312 </v>
   <v>       0.00195312 </v>
   <v>       0.00195312 </v>
   <v>       0.00097656 </v>
   <v>       0.00195312 </v>
   <v>       0.00195312 </v>
   <v>       0.00097656 </v>
   <v>       0.00195312 </v>
   <v>       0.00195312 </v>
   <v>       0.00097656 </v>
   <v>       0.00097656 </v>
   <v>       0.00195312 </v>
   <v>       0.00195312 </v>
   <v>       0.00195312 </v>
   <v>       0.00195312 </v>
   <v>       0.00195312 </v>
   <v>       0.00195312 </v>
   <v>       0.00195312 </v>
   <v>       0.00195312 </v>
   <v>       0.00195312 </v>
   <v>       0.00195312 </v>
   <v>       0.00195312 </v>
   <v>       0.00195312 </v>
   <v>       0.00195312 </v>
   <v>       0.00195312 </v>
   <v>       0.00195312 </v>
   <v>       0.00195312 </v>
   <v>       0.00195312 </v>
   <v>       0.00195312 </v>
   <v>       0.00195312 </v>
   <v>       0.00195312 </v>
   <v>       0.00195312 </v>
   <v>       0.00195312 </v>
   <v>       0.00195312 </v>
   <v>       0.00195312 </v>
   <v>       0.00195312 </v>
   <v>       0.00195312 </v>
   <v>       0.00195312 </v>
   <v>       0.00195312 </v>
   <v>       0.00195312 </v>
   <v>       0.00195312 </v>
   <v>       0.00195312 </v>
   <v>       0.00195312 </v>
   <v>       0.00195312 </v>
   <v>       0.00195312 </v>
   <v>       0.00195312 </v>
   <v>       0.00195312 </v>
   <v>       0.00195312 </v>
   <v>       0.00195312 </v>
   <v>       0.00195312 </v>
   <v>       0.00195312 </v>
   <v>       0.00195312 </v>
   <v>       0.00195312 </v>
   <v>       0.00097656 </v>
   <v>       0.00195312 </v>
   <v>       0.00195312 </v>
   <v>       0.00097656 </v>
   <v>       0.00195312 </v>
   <v>       0.00195312 </v>
   <v>       0.00097656 </v>
   <v>       0.00097656 </v>
   <v>       0.00195312 </v>
   <v>       0.00195312 </v>
   <v>       0.00195312 </v>
   <v>       0.00195312 </v>
   <v>       0.00195312 </v>
   <v>       0.00195312 </v>
   <v>       0.00195312 </v>
   <v>       0.00195312 </v>
   <v>       0.00195312 </v>
   <v>       0.00195312 </v>
   <v>       0.00195312 </v>
   <v>       0.00195312 </v>
   <v>       0.00195312 </v>
   <v>       0.00195312 </v>
   <v>       0.00195312 </v>
   <v>       0.00195312 </v>
   <v>       0.00195312 </v>
   <v>       0.00195312 </v>
   <v>       0.00195312 </v>
   <v>       0.00195312 </v>
   <v>       0.00195312 </v>
   <v>       0.00195312 </v>
   <v>       0.00195312 </v>
   <v>       0.00195312 </v>
   <v>       0.00195312 </v>
   <v>       0.00195312 </v>
   <v>       0.00195312 </v>
   <v>       0.00195312 </v>
   <v>       0.00195312 </v>
   <v>       0.00195312 </v>
   <v>       0.00097656 </v>
   <v>       0.00195312 </v>
   <v>       0.00195312 </v>
   <v>       0.00097656 </v>
   <v>       0.00195312 </v>
   <v>       0.00195312 </v>
   <v>       0.00097656 </v>
   <v>       0.00097656 </v>
   <v>       0.00195312 </v>
   <v>       0.00195312 </v>
   <v>       0.00195312 </v>
   <v>       0.00195312 </v>
   <v>       0.00195312 </v>
   <v>       0.00195312 </v>
   <v>       0.00195312 </v>
   <v>       0.00195312 </v>
   <v>       0.00195312 </v>
   <v>       0.00195312 </v>
   <v>       0.00195312 </v>
   <v>       0.00195312 </v>
   <v>       0.00195312 </v>
   <v>       0.00195312 </v>
   <v>       0.00195312 </v>
   <v>       0.00195312 </v>
   <v>       0.00195312 </v>
   <v>       0.00195312 </v>
   <v>       0.00097656 </v>
   <v>       0.00195312 </v>
   <v>       0.00195312 </v>
   <v>       0.00097656 </v>
   <v>       0.00195312 </v>
   <v>       0.00195312 </v>
   <v>       0.00097656 </v>
   <v>       0.00097656 </v>
   <v>       0.00195312 </v>
   <v>       0.00195312 </v>
   <v>       0.00195312 </v>
   <v>       0.00195312 </v>
   <v>       0.00195312 </v>
   <v>       0.00195312 </v>
   <v>       0.00097656 </v>
   <v>       0.00195312 </v>
   <v>       0.00195312 </v>
   <v>       0.00097656 </v>
   <v>       0.00097656 </v>
   <v>       0.00097656 </v>
   <v>       0.00097656 </v>
   <v>       0.00195312 </v>
   <v>       0.00195312 </v>
   <v>       0.00097656 </v>
   <v>       0.00097656 </v>
   <v>       0.00195312 </v>
   <v>       0.00195312 </v>
   <v>       0.00195312 </v>
   <v>       0.00195312 </v>
   <v>       0.00195312 </v>
   <v>       0.00195312 </v>
   <v>       0.00195312 </v>
   <v>       0.00195312 </v>
   <v>       0.00195312 </v>
   <v>       0.00195312 </v>
   <v>       0.00195312 </v>
   <v>       0.00195312 </v>
   <v>       0.00195312 </v>
   <v>       0.00195312 </v>
   <v>       0.00195312 </v>
   <v>       0.00195312 </v>
   <v>       0.00195312 </v>
   <v>       0.00195312 </v>
   <v>       0.00195312 </v>
   <v>       0.00097656 </v>
   <v>       0.00195312 </v>
   <v>       0.00097656 </v>
   <v>       0.00195312 </v>
   <v>       0.00195312 </v>
   <v>       0.00097656 </v>
   <v>       0.00097656 </v>
   <v>       0.00195312 </v>
   <v>       0.00195312 </v>
   <v>       0.00195312 </v>
   <v>       0.00195312 </v>
   <v>       0.00195312 </v>
   <v>       0.00195312 </v>
   <v>       0.00195312 </v>
   <v>       0.00195312 </v>
   <v>       0.00195312 </v>
   <v>       0.00195312 </v>
   <v>       0.00195312 </v>
   <v>       0.00195312 </v>
   <v>       0.00195312 </v>
   <v>       0.00195312 </v>
   <v>       0.00195312 </v>
   <v>       0.00195312 </v>
   <v>       0.00195312 </v>
   <v>       0.00195312 </v>
   <v>       0.00195312 </v>
   <v>       0.00195312 </v>
   <v>       0.00195312 </v>
   <v>       0.00195312 </v>
   <v>       0.00195312 </v>
   <v>       0.00195312 </v>
   <v>       0.00195312 </v>
   <v>       0.00195312 </v>
   <v>       0.00195312 </v>
   <v>       0.00195312 </v>
   <v>       0.00195312 </v>
   <v>       0.00195312 </v>
   <v>       0.00097656 </v>
   <v>       0.00195312 </v>
   <v>       0.00195312 </v>
   <v>       0.00097656 </v>
   <v>       0.00195312 </v>
   <v>       0.00195312 </v>
   <v>       0.00097656 </v>
   <v>       0.00097656 </v>
   <v>       0.00195312 </v>
   <v>       0.00195312 </v>
   <v>       0.00195312 </v>
   <v>       0.00195312 </v>
   <v>       0.00195312 </v>
   <v>       0.00195312 </v>
   <v>       0.00195312 </v>
   <v>       0.00195312 </v>
   <v>       0.00195312 </v>
   <v>       0.00195312 </v>
   <v>       0.00195312 </v>
   <v>       0.00195312 </v>
   <v>       0.00195312 </v>
   <v>       0.00195312 </v>
   <v>       0.00195312 </v>
   <v>       0.00195312 </v>
   <v>       0.00195312 </v>
   <v>       0.00195312 </v>
   <v>       0.00097656 </v>
   <v>       0.00195312 </v>
   <v>       0.00195312 </v>
   <v>       0.00097656 </v>
   <v>       0.00195312 </v>
   <v>       0.00195312 </v>
   <v>       0.00097656 </v>
   <v>       0.00097656 </v>
   <v>       0.00195312 </v>
   <v>       0.00195312 </v>
   <v>       0.00195312 </v>
   <v>       0.00195312 </v>
   <v>       0.00195312 </v>
   <v>       0.00195312 </v>
   <v>       0.00097656 </v>
   <v>       0.00195312 </v>
   <v>       0.00195312 </v>
   <v>       0.00097656 </v>
   <v>       0.00097656 </v>
   <v>       0.00097656 </v>
   <v>       0.00097656 </v>
   <v>       0.00195312 </v>
   <v>       0.00195312 </v>
   <v>       0.00097656 </v>
   <v>       0.00097656 </v>
   <v>       0.00195312 </v>
   <v>       0.00195312 </v>
   <v>       0.00195312 </v>
   <v>       0.00195312 </v>
   <v>       0.00195312 </v>
   <v>       0.00195312 </v>
   <v>       0.00195312 </v>
   <v>       0.00097656 </v>
   <v>       0.00195312 </v>
   <v>       0.00097656 </v>
   <v>       0.00195312 </v>
   <v>       0.00195312 </v>
   <v>       0.00097656 </v>
   <v>       0.00097656 </v>
   <v>       0.00195312 </v>
   <v>       0.00195312 </v>
   <v>       0.00195312 </v>
   <v>       0.00195312 </v>
   <v>       0.00195312 </v>
   <v>       0.00195312 </v>
   <v>       0.00097656 </v>
   <v>       0.00195312 </v>
   <v>       0.00195312 </v>
   <v>       0.00097656 </v>
   <v>       0.00097656 </v>
   <v>       0.00097656 </v>
   <v>       0.00097656 </v>
   <v>       0.00097656 </v>
   <v>       0.00048828 </v>
  </varray>
 </kpoints>
 <parameters>
  <separator name="general" >
   <i type="string" name="SYSTEM">unknown system</i>
   <i type="logical" name="LCOMPAT"> F  </i>
  </separator>
  <separator name="electronic" >
   <i type="string" name="PREC">accura</i>
   <i name="ENMAX">    600.00000000</i>
   <i name="ENAUG">    456.10600000</i>
   <i name="EDIFF">      0.00000001</i>
   <i type="int" name="IALGO">    38</i>
   <i type="int" name="IWAVPR">    10</i>
   <i type="int" name="NBANDS">    28</i>
   <i type="int" name="NBANDSLOW">    -1</i>
   <i type="int" name="NBANDSHIGH">    -1</i>
   <i name="NELECT">     18.00000000</i>
   <i type="int" name="TURBO">     0</i>
   <i type="int" name="IRESTART">     0</i>
   <i type="int" name="NREBOOT">     0</i>
   <i type="int" name="NMIN">     0</i>
   <i name="EREF">      0.00000000</i>
   <separator name="electronic smearing" >
    <i type="int" name="ISMEAR">     0</i>
    <i name="SIGMA">      0.00100000</i>
    <i name="KSPACING">      0.50000000</i>
    <i type="logical" name="KGAMMA"> T  </i>
    <i type="logical" name="KBLOWUP"> T  </i>
   </separator>
   <separator name="electronic projectors" >
    <i type="logical" name="LREAL"> F  </i>
    <v name="ROPT">      0.00000000      0.00000000</v>
    <i type="int" name="LMAXPAW">  -100</i>
    <i type="int" name="LMAXMIX">     2</i>
    <i type="logical" name="NLSPLINE"> F  </i>
   </separator>
   <separator name="electronic startup" >
    <i type="int" name="ISTART">     0</i>
    <i type="int" name="ICHARG">     2</i>
    <i type="int" name="INIWAV">     1</i>
   </separator>
   <separator name="electronic spin" >
    <i type="int" name="ISPIN">     1</i>
    <i type="logical" name="LNONCOLLINEAR"> F  </i>
    <v name="MAGMOM">      1.00000000      1.00000000</v>
    <i name="NUPDOWN">     -1.00000000</i>
    <i type="logical" name="LSORBIT"> F  </i>
    <v name="SAXIS">      0.00000000      0.00000000      1.00000000</v>
    <i type="logical" name="LSPIRAL"> F  </i>
    <v name="QSPIRAL">      0.00000000      0.00000000      0.00000000</v>
    <i type="logical" name="LZEROZ"> F  </i>
   </separator>
   <separator name="electronic exchange-correlation" >
    <i type="logical" name="LASPH"> F  </i>
    <i type="logical" name="LMETAGGA"> F  </i>
   </separator>
   <separator name="electronic convergence" >
    <i type="int" name="NELM">    60</i>
    <i type="int" name="NELMDL">    -5</i>
    <i type="int" name="NELMIN">     5</i>
    <i name="ENINI">    600.00000000</i>
    <separator name="electronic convergence detail" >
     <i type="logical" name="LDIAG"> T  </i>
     <i type="logical" name="LSUBROT"> F  </i>
     <i name="WEIMIN">      0.00000000</i>
     <i name="EBREAK">      0.00000000</i>
     <i name="DEPER">      0.30000000</i>
     <i type="int" name="NRMM">     4</i>
     <i name="TIME">      0.40000000</i>
    </separator>
   </separator>
   <separator name="electronic mixer" >
    <i name="AMIX">      0.40000000</i>
    <i name="BMIX">      1.00000000</i>
    <i name="AMIN">      0.10000000</i>
    <i name="AMIX_MAG">      1.60000000</i>
    <i name="BMIX_MAG">      1.00000000</i>
    <separator name="electronic mixer details" >
     <i type="int" name="IMIX">     4</i>
     <i type="logical" name="MIXFIRST"> F  </i>
     <i type="int" name="MAXMIX">   -45</i>
     <i name="WC">    100.00000000</i>
     <i type="int" name="INIMIX">     1</i>
     <i type="int" name="MIXPRE">     1</i>
     <i type="int" name="MREMOVE">     5</i>
    </separator>
   </separator>
   <separator name="electronic dipolcorrection" >
    <i type="logical" name="LDIPOL"> F  </i>
    <i type="logical" name="LMONO"> F  </i>
    <i type="int" name="IDIPOL">     0</i>
    <i name="EPSILON">      1.00000000</i>
    <v name="DIPOL">   -100.00000000   -100.00000000   -100.00000000</v>
    <i name="EFIELD">      0.00000000</i>
   </separator>
  </separator>
  <separator name="grids" >
   <i type="int" name="NGX">    40</i>
   <i type="int" name="NGY">    40</i>
   <i type="int" name="NGZ">    40</i>
   <i type="int" name="NGXF">    80</i>
   <i type="int" name="NGYF">    80</i>
   <i type="int" name="NGZF">    80</i>
   <i type="logical" name="ADDGRID"> F  </i>
  </separator>
  <separator name="ionic" >
   <i type="int" name="NSW">     0</i>
   <i type="int" name="IBRION">    -1</i>
   <i type="int" name="MDALGO">     0</i>
   <i type="int" name="ISIF">     2</i>
   <i name="PSTRESS">      0.00000000</i>
   <i name="EDIFFG">      0.00000010</i>
   <i type="int" name="NFREE">     0</i>
   <i name="POTIM">      0.50000000</i>
   <i name="SMASS">     -3.00000000</i>
   <i name="SCALEE">      1.00000000</i>
  </separator>
  <separator name="ionic md" >
   <i name="TEBEG">      0.00010000</i>
   <i name="TEEND">      0.00010000</i>
   <i type="int" name="NBLOCK">     1</i>
   <i type="int" name="KBLOCK">     1</i>
   <i type="int" name="NPACO">   256</i>
   <i name="APACO">     16.00000000</i>
  </separator>
  <separator name="symmetry" >
   <i type="int" name="ISYM">     2</i>
   <i name="SYMPREC">      0.00001000</i>
  </separator>
  <separator name="dos" >
   <i type="int" name="LORBIT">     0</i>
   <v name="RWIGS">     -1.00000000     -1.00000000</v>
   <i type="int" name="NEDOS">   301</i>
   <i name="EMIN">     10.00000000</i>
   <i name="EMAX">    -10.00000000</i>
   <i name="EFERMI">      0.00000000</i>
  </separator>
  <separator name="writing" >
   <i type="int" name="NWRITE">     2</i>
   <i type="logical" name="LWAVE"> F  </i>
   <i type="logical" name="LDOWNSAMPLE"> F  </i>
   <i type="logical" name="LCHARG"> F  </i>
   <i type="logical" name="LPARD"> F  </i>
   <i type="logical" name="LVTOT"> F  </i>
   <i type="logical" name="LVHAR"> F  </i>
   <i type="logical" name="LELF"> F  </i>
   <i type="logical" name="LOPTICS"> F  </i>
   <v name="STM">      0.00000000      0.00000000      0.00000000      0.00000000      0.00000000      0.00000000      0.00000000</v>
  </separator>
  <separator name="performance" >
   <i type="int" name="NPAR">    28</i>
   <i type="int" name="NSIM">     4</i>
   <i type="int" name="NBLK">    -1</i>
   <i type="logical" name="LPLANE"> T  </i>
   <i type="logical" name="LSCALAPACK"> T  </i>
   <i type="logical" name="LSCAAWARE"> F  </i>
   <i type="logical" name="LSCALU"> F  </i>
   <i type="logical" name="LASYNC"> F  </i>
   <i type="logical" name="LORBITALREAL"> F  </i>
  </separator>
  <separator name="miscellaneous" >
   <i type="int" name="IDIOT">     3</i>
   <i type="int" name="PHON_NSTRUCT">    -1</i>
   <i type="logical" name="LMUSIC"> F  </i>
   <v name="POMASS">    112.41100000    127.60000000</v>
   <v name="DARWINR">      0.00000000      0.00000000</v>
   <v name="DARWINV">      1.00000000      1.00000000</v>
   <i type="logical" name="LCORR"> T  </i>
  </separator>
  <i type="logical" name="GGA_COMPAT"> T  </i>
  <i type="logical" name="LBERRY"> F  </i>
  <i type="int" name="ICORELEVEL">     0</i>
  <i type="logical" name="LDAU"> F  </i>
  <i type="int" name="I_CONSTRAINED_M">     0</i>
  <separator name="electronic exchange-correlation" >
   <i type="string" name="GGA">--</i>
   <i type="int" name="VOSKOWN">     0</i>
   <i type="logical" name="LHFCALC"> F  </i>
   <i type="string" name="PRECFOCK"></i>
   <i type="logical" name="LSYMGRAD"> F  </i>
   <i type="logical" name="LHFONE"> F  </i>
   <i type="logical" name="LRHFCALC"> F  </i>
   <i type="logical" name="LTHOMAS"> F  </i>
   <i type="logical" name="LMODELHF"> F  </i>
   <i type="logical" name="LFOCKACE"> F  </i>
   <i name="ENCUT4O">     -1.00000000</i>
   <i type="int" name="EXXOEP">     0</i>
   <i type="int" name="FOURORBIT">     0</i>
   <i name="AEXX">      0.00000000</i>
   <i name="HFALPHA">      0.00000000</i>
   <i name="MCALPHA">      0.00000000</i>
   <i name="ALDAX">      1.00000000</i>
   <i name="AGGAX">      1.00000000</i>
   <i name="ALDAC">      1.00000000</i>
   <i name="AGGAC">      1.00000000</i>
   <i type="int" name="NKREDX">     1</i>
   <i type="int" name="NKREDY">     1</i>
   <i type="int" name="NKREDZ">     1</i>
   <i type="logical" name="SHIFTRED"> F  </i>
   <i type="logical" name="ODDONLY"> F  </i>
   <i type="logical" name="EVENONLY"> F  </i>
   <i type="int" name="LMAXFOCK">     0</i>
   <i type="int" name="NMAXFOCKAE">     0</i>
   <i type="logical" name="LFOCKAEDFT"> F  </i>
   <i name="HFSCREEN">      0.00000000</i>
   <i name="HFSCREENC">      0.00000000</i>
   <i type="int" name="NBANDSGWLOW">     0</i>
  </separator>
  <separator name="vdW DFT" >
   <i type="logical" name="LUSE_VDW"> F  </i>
   <i name="Zab_VDW">     -0.84910000</i>
   <i name="PARAM1">      0.12340000</i>
   <i name="PARAM2">      1.00000000</i>
   <i name="PARAM3">      0.00000000</i>
  </separator>
  <separator name="model GW" >
   <i type="int" name="MODEL_GW">     0</i>
   <i name="MODEL_EPS0">     20.45075629</i>
   <i name="MODEL_ALPHA">      1.00000000</i>
  </separator>
  <separator name="linear response parameters" >
   <i type="logical" name="LEPSILON"> T  </i>
   <i type="logical" name="LRPA"> F  </i>
   <i type="logical" name="LNABLA"> F  </i>
   <i type="logical" name="LVEL"> F  </i>
   <i type="int" name="KINTER">     0</i>
   <i name="CSHIFT">      0.10000000</i>
   <i name="OMEGAMAX">     -1.00000000</i>
   <i name="DEG_THRESHOLD">      0.00200000</i>
   <i name="RTIME">     -0.10000000</i>
   <i name="WPLASMAI">      0.00000000</i>
   <v name="DFIELD">      0.00000000      0.00000000      0.00000000</v>
   <v name="WPLASMA">      0.00000000      0.00000000      0.00000000      0.00000000      0.00000000      0.00000000      0.00000000      0.00000000      0.00000000</v>
  </separator>
  <separator name="orbital magnetization" >
   <i type="logical" name="NUCIND"> F  </i>
   <v name="MAGPOS">      0.00000000      0.00000000      0.00000000</v>
   <i type="logical" name="LNICSALL"> T  </i>
   <i type="logical" name="ORBITALMAG"> F  </i>
   <i type="logical" name="LMAGBLOCH"> F  </i>
   <i type="logical" name="LCHIMAG"> F  </i>
   <i type="logical" name="LGAUGE"> T  </i>
   <i type="int" name="MAGATOM">     0</i>
   <v name="MAGDIPOL">      0.00000000      0.00000000      0.00000000</v>
   <v name="AVECCONST">      0.00000000      0.00000000      0.00000000</v>
  </separator>
  <separator name="response functions" >
   <i type="logical" name="LFINITE_TEMPERATURE"> F  </i>
   <i type="logical" name="LADDER"> F  </i>
   <i type="logical" name="LRPAFORCE"> F  </i>
   <i type="logical" name="LFXC"> F  </i>
   <i type="logical" name="LHARTREE"> T  </i>
   <i type="int" name="IBSE">     0</i>
   <v type="int" name="KPOINT">    -1     0     0     0</v>
   <i type="logical" name="LTCTC"> F  </i>
   <i type="logical" name="LTCTE"> F  </i>
   <i type="logical" name="LTETE"> F  </i>
   <i type="logical" name="LTRIPLET"> F  </i>
   <i type="logical" name="LFXCEPS"> F  </i>
   <i type="logical" name="LFXHEG"> F  </i>
   <i type="int" name="NATURALO">     2</i>
   <i type="logical" name="LHOLEGF"> F  </i>
   <i type="logical" name="L2ORDER"> F  </i>
   <i type="logical" name="LDMP1"> F  </i>
   <i type="logical" name="LMP2LT"> F  </i>
   <i type="logical" name="LSMP2LT"> F  </i>
   <i type="logical" name="LGWLF"> F  </i>
   <i name="ENCUTGW">     -2.00000000</i>
   <i name="ENCUTGWSOFT">     -2.00000000</i>
   <i name="ENCUTLF">     -1.00000000</i>
   <i type="logical" name="LESF_SPLINES"> F  </i>
   <i type="int" name="LMAXMP2">    -1</i>
   <i name="SCISSOR">      0.00000000</i>
   <i type="int" name="NOMEGA">     0</i>
   <i type="int" name="NOMEGAR">     0</i>
   <i type="int" name="NBANDSGW">    -1</i>
   <i type="int" name="NBANDSO">    -1</i>
   <i type="int" name="NBANDSV">    -1</i>
   <i type="int" name="NELM">     1</i>
   <i type="int" name="NELMHF">     1</i>
   <i type="int" name="DIM">     3</i>
   <i type="int" name="IESPILON">     4</i>
   <i type="int" name="ANTIRES">     0</i>
   <i name="OMEGAMAX">    -30.00000000</i>
   <i name="OMEGAMIN">    -30.00000000</i>
   <i name="OMEGATL">   -200.00000000</i>
   <i type="int" name="OMEGAGRID">     0</i>
   <i name="CSHIFT">     -0.10000000</i>
   <i type="logical" name="LSELFENERGY"> F  </i>
   <i type="logical" name="LSPECTRAL"> F  </i>
   <i type="logical" name="LSPECTRALGW"> F  </i>
   <i type="logical" name="LSINGLES"> F  </i>
   <i type="logical" name="LFERMIGW"> F  </i>
   <i type="logical" name="ODDONLYGW"> F  </i>
   <i type="logical" name="EVENONLYGW"> F  </i>
   <i type="int" name="NKREDLFX">     1</i>
   <i type="int" name="NKREDLFY">     1</i>
   <i type="int" name="NKREDLFZ">     1</i>
   <i type="int" name="MAXMEM">  2800</i>
   <i type="int" name="TELESCOPE">     0</i>
   <i type="int" name="NTAUPAR">    -1</i>
   <i type="int" name="NOMEGAPAR">    -1</i>
   <i name="LAMBDA">      1.00000000</i>
  </separator>
  <separator name="External order field" >
   <i name="OFIELD_KAPPA">      0.00000000</i>
   <v name="OFIELD_K">      0.00000000      0.00000000      0.00000000</v>
   <i name="OFIELD_Q6_NEAR">      0.00000000</i>
   <i name="OFIELD_Q6_FAR">      0.00000000</i>
   <i name="OFIELD_A">      0.00000000</i>
  </separator>
 </parameters>
 <atominfo>
  <atoms>       2 </atoms>
  <types>       2 </types>
  <array name="atoms" >
   <dimension dim="1">ion</dimension>
   <field type="string">element</field>
   <field type="int">atomtype</field>
   <set>
    <rc><c>Cd</c><c>   1</c></rc>
    <rc><c>Te</c><c>   2</c></rc>
   </set>
  </array>
  <array name="atomtypes" >
   <dimension dim="1">type</dimension>
   <field type="int">atomspertype</field>
   <field type="string">element</field>
   <field>mass</field>
   <field>valence</field>
   <field type="string">pseudopotential</field>
   <set>
    <rc><c>   1</c><c>Cd</c><c>    112.41100000</c><c>     12.00000000</c><c>  PAW_PBE Cd 06Sep2000                  </c></rc>
    <rc><c>   1</c><c>Te</c><c>    127.60000000</c><c>      6.00000000</c><c>  PAW_PBE Te 08Apr2002                  </c></rc>
   </set>
  </array>
 </atominfo>
 <structure name="initialpos" >
  <crystal>
   <varray name="basis" >
    <v>      -0.00000170       3.24229352       3.24229440 </v>
    <v>       3.24229724       0.00000227       3.24229662 </v>
    <v>       3.24230079       3.24229928       0.00000317 </v>
   </varray>
   <i name="volume">     68.16918762 </i>
   <varray name="rec_basis" >
    <v>      -0.15421184       0.15421176       0.15421176 </v>
    <v>       0.15421159      -0.15421181       0.15421185 </v>
    <v>       0.15421146       0.15421172      -0.15421160 </v>
   </varray>
  </crystal>
  <varray name="positions" >
   <v>       0.00000557       0.00000632       0.99999445 </v>
   <v>       0.74999443       0.74999368       0.75000555 </v>
  </varray>
 </structure>
 <calculation>
  <scstep>
   <time name="dav">    8.79    8.84</time>
   <time name="total">    8.82    8.86</time>
   <energy>
    <i name="alphaZ">     50.12830081 </i>
    <i name="ewald">  -1044.52642208 </i>
    <i name="hartreedc">   -510.29059307 </i>
    <i name="XCdc">    -22.62759685 </i>
    <i name="pawpsdc">   1404.43023187 </i>
    <i name="pawaedc">  -1332.16472941 </i>
    <i name="eentropy">     -0.00000047 </i>
    <i name="bandstr">     -6.98735697 </i>
    <i name="atom">   1516.44906300 </i>
    <i name="e_fr_energy">     54.41089683 </i>
    <i name="e_wo_entrp">     54.41089730 </i>
    <i name="e_0_energy">     54.41089707 </i>
   </energy>
  </scstep>
  <scstep>
   <time name="dav">   12.36   12.35</time>
   <time name="total">   12.36   12.35</time>
   <energy>
    <i name="e_fr_energy">     -4.46767742 </i>
    <i name="e_wo_entrp">     -4.46767742 </i>
    <i name="e_0_energy">     -4.46767742 </i>
   </energy>
  </scstep>
  <scstep>
   <time name="dav">   10.96   10.95</time>
   <time name="total">   10.96   10.95</time>
   <energy>
    <i name="e_fr_energy">     -5.00556868 </i>
    <i name="e_wo_entrp">     -5.00556868 </i>
    <i name="e_0_energy">     -5.00556868 </i>
   </energy>
  </scstep>
  <scstep>
   <time name="dav">   17.71   17.69</time>
   <time name="total">   17.71   17.69</time>
   <energy>
    <i name="e_fr_energy">     -5.00677460 </i>
    <i name="e_wo_entrp">     -5.00677460 </i>
    <i name="e_0_energy">     -5.00677460 </i>
   </energy>
  </scstep>
  <scstep>
   <time name="dav">   11.21   11.20</time>
   <time name="total">   11.67   11.66</time>
   <energy>
    <i name="e_fr_energy">     -5.00677489 </i>
    <i name="e_wo_entrp">     -5.00677489 </i>
    <i name="e_0_energy">     -5.00677489 </i>
   </energy>
  </scstep>
  <scstep>
   <time name="dav">   12.90   12.89</time>
   <time name="total">   13.37   13.36</time>
   <energy>
    <i name="e_fr_energy">     -4.79420762 </i>
    <i name="e_wo_entrp">     -4.79420762 </i>
    <i name="e_0_energy">     -4.79420762 </i>
   </energy>
  </scstep>
  <scstep>
   <time name="dav">   15.06   15.05</time>
   <time name="total">   15.53   15.52</time>
   <energy>
    <i name="e_fr_energy">     -4.77634552 </i>
    <i name="e_wo_entrp">     -4.77634552 </i>
    <i name="e_0_energy">     -4.77634552 </i>
   </energy>
  </scstep>
  <scstep>
   <time name="dav">   11.42   11.41</time>
   <time name="total">   11.89   11.88</time>
   <energy>
    <i name="e_fr_energy">     -4.77702427 </i>
    <i name="e_wo_entrp">     -4.77702427 </i>
    <i name="e_0_energy">     -4.77702427 </i>
   </energy>
  </scstep>
  <scstep>
   <time name="dav">   14.93   14.92</time>
   <time name="total">   15.40   15.39</time>
   <energy>
    <i name="e_fr_energy">     -4.77714516 </i>
    <i name="e_wo_entrp">     -4.77714516 </i>
    <i name="e_0_energy">     -4.77714516 </i>
   </energy>
  </scstep>
  <scstep>
   <time name="dav">   12.75   12.74</time>
   <time name="total">   13.21   13.20</time>
   <energy>
    <i name="e_fr_energy">     -4.77721594 </i>
    <i name="e_wo_entrp">     -4.77721594 </i>
    <i name="e_0_energy">     -4.77721594 </i>
   </energy>
  </scstep>
  <scstep>
   <time name="dav">   12.21   12.20</time>
   <time name="total">   12.68   12.67</time>
   <energy>
    <i name="e_fr_energy">     -4.77724415 </i>
    <i name="e_wo_entrp">     -4.77724415 </i>
    <i name="e_0_energy">     -4.77724415 </i>
   </energy>
  </scstep>
  <scstep>
   <time name="dav">   15.97   15.96</time>
   <time name="total">   16.44   16.43</time>
   <energy>
    <i name="e_fr_energy">     -4.77724522 </i>
    <i name="e_wo_entrp">     -4.77724522 </i>
    <i name="e_0_energy">     -4.77724522 </i>
   </energy>
  </scstep>
  <scstep>
   <time name="dav">   11.54   11.53</time>
   <time name="total">   12.00   11.99</time>
   <energy>
    <i name="e_fr_energy">     -4.77724565 </i>
    <i name="e_wo_entrp">     -4.77724565 </i>
    <i name="e_0_energy">     -4.77724565 </i>
   </energy>
  </scstep>
  <scstep>
   <time name="dav">   16.65   16.64</time>
   <time name="total">   17.12   17.11</time>
   <energy>
    <i name="e_fr_energy">     -4.77724567 </i>
    <i name="e_wo_entrp">     -4.77724567 </i>
    <i name="e_0_energy">     -4.77724567 </i>
   </energy>
  </scstep>
  <scstep>
   <time name="dav">   11.78   11.78</time>
   <time name="total">   12.25   12.24</time>
   <energy>
    <i name="e_fr_energy">     -4.77724573 </i>
    <i name="e_wo_entrp">     -4.77724573 </i>
    <i name="e_0_energy">     -4.77724573 </i>
   </energy>
  </scstep>
  <scstep>
   <time name="dav">   10.48   10.47</time>
   <time name="total">   10.49   10.48</time>
   <energy>
    <i name="alphaZ">     50.12830081 </i>
    <i name="ewald">  -1044.52642208 </i>
    <i name="hartreedc">   -503.80385243 </i>
    <i name="XCdc">    -22.56070983 </i>
    <i name="pawpsdc">   1744.96510693 </i>
    <i name="pawaedc">  -1672.36895148 </i>
    <i name="eentropy">     -0.00000000 </i>
    <i name="bandstr">    -73.05978065 </i>
    <i name="atom">   1516.44906300 </i>
    <i name="e_fr_energy">     -4.77724572 </i>
    <i name="e_wo_entrp">     -4.77724572 </i>
    <i name="e_0_energy">     -4.77724572 </i>
   </energy>
  </scstep>
  <structure>
   <crystal>
    <varray name="basis" >
     <v>      -0.00000170       3.24229352       3.24229440 </v>
     <v>       3.24229724       0.00000227       3.24229662 </v>
     <v>       3.24230079       3.24229928       0.00000317 </v>
    </varray>
    <i name="volume">     68.16918762 </i>
    <varray name="rec_basis" >
     <v>      -0.15421184       0.15421176       0.15421176 </v>
[...]
       <r>    0.0776    1.0000 </r>
       <r>    0.1859    1.0000 </r>
       <r>    6.2373    0.0000 </r>
       <r>    6.3903    0.0000 </r>
       <r>    8.6510    0.0000 </r>
       <r>    9.0472    0.0000 </r>
       <r>   11.9519    0.0000 </r>
       <r>   13.4081    0.0000 </r>
       <r>   13.6752    0.0000 </r>
       <r>   13.7846    0.0000 </r>
       <r>   16.1083    0.0000 </r>
       <r>   17.2086    0.0000 </r>
       <r>   17.5114    0.0000 </r>
       <r>   17.6526    0.0000 </r>
       <r>   17.7190    0.0000 </r>
       <r>   18.1029    0.0000 </r>
       <r>   20.2515    0.0000 </r>
       <r>   21.1098    0.0000 </r>
       <r>   22.0123    0.0000 </r>
       <r>   22.1567    0.0000 </r>
       <r>   22.3848    0.0000 </r>
      </set>
      <set comment="kpoint 619">
       <r>   -8.3201    1.0000 </r>
       <r>   -5.8216    1.0000 </r>
       <r>   -5.8202    1.0000 </r>
       <r>   -5.7311    1.0000 </r>
       <r>   -5.6817    1.0000 </r>
       <r>   -5.1305    1.0000 </r>
       <r>   -1.8646    1.0000 </r>
       <r>    0.0776    1.0000 </r>
       <r>    0.1859    1.0000 </r>
       <r>    6.2373    0.0000 </r>
       <r>    6.3903    0.0000 </r>
       <r>    8.6510    0.0000 </r>
       <r>    9.0472    0.0000 </r>
       <r>   11.9520    0.0000 </r>
       <r>   13.4082    0.0000 </r>
       <r>   13.6752    0.0000 </r>
       <r>   13.7847    0.0000 </r>
       <r>   16.1083    0.0000 </r>
       <r>   17.2086    0.0000 </r>
       <r>   17.5114    0.0000 </r>
       <r>   17.6526    0.0000 </r>
       <r>   17.7190    0.0000 </r>
       <r>   18.1029    0.0000 </r>
       <r>   20.2515    0.0000 </r>
       <r>   21.1098    0.0000 </r>
       <r>   22.0123    0.0000 </r>
       <r>   22.1567    0.0000 </r>
       <r>   22.3847    0.0000 </r>
      </set>
      <set comment="kpoint 620">
       <r>   -8.3203    1.0000 </r>
       <r>   -5.8270    1.0000 </r>
       <r>   -5.8220    1.0000 </r>
       <r>   -5.7195    1.0000 </r>
       <r>   -5.6901    1.0000 </r>
       <r>   -5.1191    1.0000 </r>
       <r>   -1.8442    1.0000 </r>
       <r>    0.0133    1.0000 </r>
       <r>    0.1417    1.0000 </r>
       <r>    6.5812    0.0000 </r>
       <r>    7.0154    0.0000 </r>
       <r>    7.8947    0.0000 </r>
       <r>    8.6255    0.0000 </r>
       <r>   11.9885    0.0000 </r>
       <r>   13.4297    0.0000 </r>
       <r>   13.6345    0.0000 </r>
       <r>   13.8239    0.0000 </r>
       <r>   15.9636    0.0000 </r>
       <r>   17.1831    0.0000 </r>
       <r>   17.4765    0.0000 </r>
       <r>   17.5651    0.0000 </r>
       <r>   18.2006    0.0000 </r>
       <r>   18.9968    0.0000 </r>
       <r>   19.3607    0.0000 </r>
       <r>   21.4622    0.0000 </r>
       <r>   22.2147    0.0000 </r>
       <r>   22.7782    0.0000 </r>
       <r>   22.8318    0.0000 </r>
      </set>
      <set comment="kpoint 621">
       <r>   -8.3203    1.0000 </r>
       <r>   -5.8270    1.0000 </r>
       <r>   -5.8220    1.0000 </r>
       <r>   -5.7195    1.0000 </r>
       <r>   -5.6901    1.0000 </r>
       <r>   -5.1191    1.0000 </r>
       <r>   -1.8442    1.0000 </r>
       <r>    0.0133    1.0000 </r>
       <r>    0.1417    1.0000 </r>
       <r>    6.5812    0.0000 </r>
       <r>    7.0154    0.0000 </r>
       <r>    7.8947    0.0000 </r>
       <r>    8.6255    0.0000 </r>
       <r>   11.9885    0.0000 </r>
       <r>   13.4297    0.0000 </r>
       <r>   13.6345    0.0000 </r>
       <r>   13.8239    0.0000 </r>
       <r>   15.9636    0.0000 </r>
       <r>   17.1831    0.0000 </r>
       <r>   17.4765    0.0000 </r>
       <r>   17.5651    0.0000 </r>
       <r>   18.2006    0.0000 </r>
       <r>   18.9968    0.0000 </r>
       <r>   19.3607    0.0000 </r>
       <r>   21.4622    0.0000 </r>
       <r>   22.2147    0.0000 </r>
       <r>   22.7782    0.0000 </r>
       <r>   22.8318    0.0000 </r>
      </set>
     </set>
    </set>
   </array>
  </eigenvalues>
  <separator name="orbital magnetization" >
   <v name="MAGDIPOLOUT">      0.00000000      0.00000000      0.00000000</v>
  </separator>
  <dos>
   <i name="efermi">      2.34068416 </i>
   <total>
    <array>
     <dimension dim="1">gridpoints</dimension>
     <dimension dim="2">spin</dimension>
     <field>energy</field>
     <field>total</field>
     <field>integrated</field>
     <set>
      <set comment="spin 1">
       <r>   -10.5720     0.0000     0.0000 </r>
       <r>   -10.4445     0.0000     0.0000 </r>
       <r>   -10.3170     0.0000     0.0000 </r>
       <r>   -10.1894     0.0000     0.0000 </r>
       <r>   -10.0619     0.0000     0.0000 </r>
       <r>    -9.9344     0.0000     0.0000 </r>
       <r>    -9.8068     0.0000     0.0000 </r>
       <r>    -9.6793     0.0000     0.0000 </r>
       <r>    -9.5518     0.0000     0.0000 </r>
       <r>    -9.4242     0.0000     0.0000 </r>
       <r>    -9.2967     0.0000     0.0000 </r>
       <r>    -9.1692     0.0000     0.0000 </r>
       <r>    -9.0416     0.0000     0.0000 </r>
       <r>    -8.9141     0.0000     0.0000 </r>
       <r>    -8.7866     0.0459     0.0132 </r>
       <r>    -8.6590     0.0000     0.1265 </r>
       <r>    -8.5315     0.2290     0.3832 </r>
       <r>    -8.4040     0.3005     1.0437 </r>
       <r>    -8.2764     0.0000     2.0000 </r>
       <r>    -8.1489     0.0000     2.0000 </r>
       <r>    -8.0214     0.0000     2.0000 </r>
       <r>    -7.8938     0.0000     2.0000 </r>
       <r>    -7.7663     0.0000     2.0000 </r>
       <r>    -7.6388     0.0000     2.0000 </r>
       <r>    -7.5112     0.0000     2.0000 </r>
       <r>    -7.3837     0.0000     2.0000 </r>
       <r>    -7.2562     0.0000     2.0000 </r>
       <r>    -7.1286     0.0000     2.0000 </r>
       <r>    -7.0011     0.0000     2.0000 </r>
       <r>    -6.8736     0.0000     2.0000 </r>
       <r>    -6.7460     0.0000     2.0000 </r>
       <r>    -6.6185     0.0000     2.0000 </r>
       <r>    -6.4910     0.0000     2.0000 </r>
       <r>    -6.3634     0.0000     2.0000 </r>
       <r>    -6.2359     0.0000     2.0000 </r>
       <r>    -6.1084     0.0000     2.0000 </r>
       <r>    -5.9808     0.0000     2.0000 </r>
       <r>    -5.8533     2.6533     4.3398 </r>
       <r>    -5.7258     1.3266     6.9690 </r>
       <r>    -5.5982     0.1838    10.3774 </r>
       <r>    -5.4707     0.0850    10.6178 </r>
       <r>    -5.3432     0.0919    11.0063 </r>
       <r>    -5.2156     0.2201    11.5725 </r>
       <r>    -5.0881     0.0000    12.0000 </r>
       <r>    -4.9606     0.0000    12.0000 </r>
       <r>    -4.8330     0.0000    12.0000 </r>
       <r>    -4.7055     0.0000    12.0000 </r>
       <r>    -4.5780     0.0000    12.0000 </r>
       <r>    -4.4504     0.0000    12.0000 </r>
       <r>    -4.3229     0.0000    12.0000 </r>
       <r>    -4.1954     0.0000    12.0000 </r>
       <r>    -4.0678     0.0000    12.0000 </r>
       <r>    -3.9403     0.0000    12.0000 </r>
       <r>    -3.8128     0.0000    12.0000 </r>
       <r>    -3.6852     0.0000    12.0000 </r>
       <r>    -3.5577     0.0000    12.0000 </r>
       <r>    -3.4302     0.0000    12.0000 </r>
       <r>    -3.3026     0.0000    12.0000 </r>
       <r>    -3.1751     0.0000    12.0000 </r>
       <r>    -3.0476     0.0000    12.0000 </r>
       <r>    -2.9200     0.0000    12.0000 </r>
       <r>    -2.7925     0.0000    12.0000 </r>
       <r>    -2.6650     0.0000    12.0000 </r>
       <r>    -2.5375     0.0000    12.0000 </r>
       <r>    -2.4099     0.0000    12.0000 </r>
       <r>    -2.2824     0.0000    12.0000 </r>
       <r>    -2.1549     0.0000    12.0000 </r>
       <r>    -2.0273     0.0018    12.0139 </r>
       <r>    -1.8998     0.5541    12.2010 </r>
       <r>    -1.7723     0.0613    12.7690 </r>
       <r>    -1.6447     0.4586    13.0560 </r>
       <r>    -1.5172     0.0919    13.2124 </r>
       <r>    -1.3897     0.2757    13.3442 </r>
       <r>    -1.2621     0.0000    13.3970 </r>
       <r>    -1.1346     0.0000    13.4907 </r>
       <r>    -1.0071     0.0000    13.5767 </r>
       <r>    -0.8795     0.0000    13.6265 </r>
       <r>    -0.7520     0.0002    13.6499 </r>
       <r>    -0.6245     0.0919    13.7261 </r>
       <r>    -0.4969     0.0000    13.7378 </r>
       <r>    -0.3694     0.0001    13.7769 </r>
       <r>    -0.2419     0.0919    13.8384 </r>
       <r>    -0.1143     0.0000    13.9790 </r>
       <r>     0.0132     0.1588    14.2219 </r>
       <r>     0.1407     0.0019    14.4216 </r>
       <r>     0.2683     0.1838    14.6587 </r>
       <r>     0.3958     0.2803    14.8653 </r>
       <r>     0.5233     0.0919    15.1021 </r>
       <r>     0.6509     0.0000    15.4888 </r>
       <r>     0.7784     0.0459    15.6938 </r>
       <r>     0.9059     0.1838    16.0337 </r>
       <r>     1.0335     0.2056    16.2298 </r>
       <r>     1.1610     0.0000    16.5444 </r>
       <r>     1.2885     0.0003    16.8433 </r>
       <r>     1.4161     0.0000    17.0542 </r>
       <r>     1.5436     0.0719    17.3212 </r>
       <r>     1.6711     0.0000    17.5542 </r>
       <r>     1.7987     0.0919    17.7026 </r>
       <r>     1.9262     0.1199    17.8205 </r>
       <r>     2.0537     0.0028    17.8934 </r>
       <r>     2.1813     0.0000    17.9595 </r>
       <r>     2.3088     0.0000    17.9985 </r>
       <r>     2.4363     0.0000    18.0000 </r>
       <r>     2.5639     0.0000    18.0000 </r>
       <r>     2.6914     0.0000    18.0000 </r>
       <r>     2.8189     0.0000    18.0000 </r>
       <r>     2.9465     0.0000    18.0000 </r>
       <r>     3.0740     0.0000    18.0000 </r>
       <r>     3.2015     0.0000    18.0005 </r>
       <r>     3.3291     0.0000    18.0005 </r>
       <r>     3.4566     0.0000    18.0005 </r>
       <r>     3.5841     0.0000    18.0044 </r>
       <r>     3.7117     0.0000    18.0073 </r>
       <r>     3.8392     0.0000    18.0073 </r>
       <r>     3.9667     0.0000    18.0132 </r>
       <r>     4.0943     0.0000    18.0288 </r>
       <r>     4.2218     0.0306    18.0386 </r>
       <r>     4.3493     0.0000    18.0620 </r>
       <r>     4.4769     0.0000    18.1704 </r>
       <r>     4.6044     0.0000    18.2056 </r>
       <r>     4.7319     0.0000    18.2817 </r>
       <r>     4.8595     0.0908    18.4105 </r>
       <r>     4.9870     0.0919    18.4883 </r>
       <r>     5.1145     0.0919    18.5571 </r>
       <r>     5.2421     0.0000    18.9380 </r>
       <r>     5.3696     0.0000    19.1899 </r>
       <r>     5.4971     0.0000    19.4712 </r>
       <r>     5.6247     0.0919    19.7144 </r>
       <r>     5.7522     0.0000    19.8579 </r>
       <r>     5.8797     0.1838    20.0806 </r>
       <r>     6.0073     0.0000    20.1655 </r>
       <r>     6.1348     0.0000    20.2358 </r>
       <r>     6.2623     0.1837    20.3940 </r>
       <r>     6.3899     0.0117    20.5274 </r>
       <r>     6.5174     0.0000    20.6138 </r>
       <r>     6.6449     0.0000    20.7222 </r>
       <r>     6.7725     0.0000    20.7485 </r>
       <r>     6.9000     0.1841    21.0474 </r>
       <r>     7.0275     0.1838    21.2607 </r>
       <r>     7.1551     0.0000    21.5674 </r>
       <r>     7.2826     0.1033    21.8013 </r>
       <r>     7.4101     0.1804    21.9947 </r>
       <r>     7.5377     0.1790    22.1761 </r>
       <r>     7.6652     0.0919    22.3467 </r>
       <r>     7.7927     0.2345    22.6149 </r>
       <r>     7.9203     0.2779    22.9515 </r>
       <r>     8.0478     0.2762    23.2149 </r>
       <r>     8.1753     0.0939    23.5374 </r>
       <r>     8.3028     0.0918    23.7187 </r>
       <r>     8.4304     0.0919    23.8867 </r>
       <r>     8.5579     0.1420    24.0806 </r>
       <r>     8.6854     0.0911    24.1884 </r>
       <r>     8.8130     0.1838    24.3584 </r>
       <r>     8.9405     0.0000    24.4346 </r>
       <r>     9.0680     0.1838    24.5908 </r>
       <r>     9.1956     0.0000    24.8398 </r>
       <r>     9.3231     0.0965    25.0162 </r>
       <r>     9.4506     0.0000    25.1533 </r>
       <r>     9.5782     0.0000    25.3145 </r>
       <r>     9.7057     0.0000    25.4727 </r>
       <r>     9.8332     0.1838    25.7310 </r>
       <r>     9.9608     0.0763    25.8286 </r>
       <r>    10.0883     0.0172    25.9744 </r>
       <r>    10.2158     0.1838    26.1772 </r>
       <r>    10.3434     0.0000    26.3472 </r>
       <r>    10.4709     0.0919    26.6948 </r>
       <r>    10.5984     0.0919    26.7925 </r>
       <r>    10.7260     0.0303    27.0288 </r>
       <r>    10.8535     0.0000    27.3384 </r>
       <r>    10.9810     0.0674    27.6399 </r>
       <r>    11.1086     0.0866    27.7889 </r>
       <r>    11.2361     0.1842    28.0430 </r>
       <r>    11.3636     0.0000    28.2598 </r>
       <r>    11.4912     0.1017    28.4358 </r>
       <r>    11.6187     0.0278    28.6041 </r>
       <r>    11.7462     0.1838    28.7568 </r>
       <r>    11.8738     0.0919    28.9121 </r>
       <r>    12.0013     0.0000    29.1084 </r>
       <r>    12.1288     0.0397    29.2814 </r>
       <r>    12.2564     0.1676    29.4491 </r>
       <r>    12.3839     0.0919    29.7168 </r>
       <r>    12.5114     0.1838    29.9028 </r>
       <r>    12.6390     0.2018    30.0926 </r>
       <r>    12.7665     0.0210    30.3137 </r>
       <r>    12.8940     0.1838    30.6265 </r>
       <r>    13.0216     0.0828    30.9417 </r>
       <r>    13.1491     0.1815    31.1462 </r>
       <r>    13.2766     0.0016    31.3088 </r>
       <r>    13.4042     0.0000    31.4668 </r>
       <r>    13.5317     0.1826    31.7362 </r>
       <r>    13.6592     0.4594    32.1396 </r>
       <r>    13.7868     0.3867    32.4546 </r>
       <r>    13.9143     0.0043    32.7632 </r>
       <r>    14.0418     0.0230    33.0947 </r>
       <r>    14.1694     0.0003    33.2217 </r>
       <r>    14.2969     0.3661    33.5008 </r>
       <r>    14.4244     0.2352    33.8313 </r>
       <r>    14.5520     0.5513    34.1948 </r>
       <r>    14.6795     0.0000    34.4673 </r>
       <r>    14.8070     0.1592    34.6175 </r>
       <r>    14.9346     0.0000    34.7734 </r>
       <r>    15.0621     0.0000    34.9082 </r>
       <r>    15.1896     0.0306    35.2227 </r>
       <r>    15.3172     0.2077    35.5333 </r>
       <r>    15.4447     0.0919    35.6992 </r>
       <r>    15.5722     0.0919    35.8535 </r>
       <r>    15.6998     0.0459    36.0762 </r>
       <r>    15.8273     0.2757    36.4219 </r>
       <r>    15.9548     0.1278    36.6179 </r>
       <r>    16.0824     0.2557    36.8324 </r>
       <r>    16.2099     0.1838    37.1997 </r>
       <r>    16.3374     0.0000    37.3521 </r>
       <r>    16.4650     0.2411    37.6758 </r>
       <r>    16.5925     0.1611    37.9439 </r>
       <r>    16.7200     0.1585    38.2990 </r>
       <r>    16.8476     0.0000    38.6099 </r>
       <r>    16.9751     0.0893    38.9709 </r>
       <r>    17.1026     0.0000    39.3140 </r>
       <r>    17.2302     0.3440    39.6186 </r>
       <r>    17.3577     0.1378    39.9468 </r>
       <r>    17.4852     0.0918    40.1255 </r>
       <r>    17.6128     0.2754    40.3286 </r>
       <r>    17.7403     0.3676    40.7271 </r>
       <r>    17.8678     0.2836    41.0703 </r>
       <r>    17.9954     0.0000    41.3984 </r>
       <r>    18.1229     0.0919    41.6855 </r>
       <r>    18.2504     0.0115    41.8423 </r>
       <r>    18.3780     0.0026    41.9896 </r>
       <r>    18.5055     0.3676    42.3491 </r>
       <r>    18.6330     0.1838    42.7725 </r>
       <r>    18.7606     0.1838    43.1357 </r>
       <r>    18.8881     0.1378    43.3906 </r>
       <r>    19.0156     0.1838    43.6299 </r>
       <r>    19.1431     0.1989    43.8681 </r>
       <r>    19.2707     0.0000    44.1533 </r>
       <r>    19.3982     0.0000    44.4766 </r>
       <r>    19.5257     0.1838    44.7227 </r>
       <r>    19.6533     0.1378    44.9668 </r>
       <r>    19.7808     0.6597    45.3312 </r>
       <r>    19.9083     0.0919    45.5537 </r>
       <r>    20.0359     0.0000    45.8027 </r>
       <r>    20.1634     0.0000    46.1309 </r>
       <r>    20.2909     0.2744    46.4432 </r>
       <r>    20.4185     0.0000    46.6338 </r>
       <r>    20.5460     0.0000    46.8965 </r>
       <r>    20.6735     0.0000    47.1953 </r>
       <r>    20.8011     0.1218    47.6542 </r>
       <r>    20.9286     0.3184    47.9498 </r>
       <r>    21.0561     0.5513    48.2720 </r>
       <r>    21.1837     0.1378    48.6333 </r>
       <r>    21.3112     0.0955    48.8623 </r>
       <r>    21.4387     0.1871    49.2099 </r>
       <r>    21.5663     0.1838    49.4966 </r>
       <r>    21.6938     0.0919    49.8267 </r>
       <r>    21.8213     0.3295    50.2466 </r>
       <r>    21.9489     0.2755    50.6206 </r>
       <r>    22.0764     0.1820    50.9832 </r>
       <r>    22.2039     0.0907    51.1571 </r>
       <r>    22.3315     0.0919    51.4961 </r>
       <r>    22.4590     0.0001    51.8838 </r>
       <r>    22.5865     0.0919    52.1670 </r>
       <r>    22.7141     0.2753    52.5957 </r>
       <r>    22.8416     0.1838    52.9092 </r>
       <r>    22.9691     0.0459    53.2021 </r>
       <r>    23.0967     0.0000    53.4028 </r>
       <r>    23.2242     0.0000    53.5923 </r>
       <r>    23.3517     0.0000    54.0923 </r>
       <r>    23.4793     0.0460    54.3608 </r>
       <r>    23.6068     0.0000    54.6362 </r>
       <r>    23.7343     0.2697    54.8474 </r>
       <r>    23.8619     0.0919    55.0913 </r>
       <r>    23.9894     0.1838    55.2163 </r>
       <r>    24.1169     0.0919    55.2749 </r>
       <r>    24.2445     0.0613    55.3501 </r>
       <r>    24.3720     0.0000    55.4438 </r>
       <r>    24.4995     0.0000    55.5063 </r>
       <r>    24.6271     0.0000    55.5679 </r>
       <r>    24.7546     0.0000    55.6514 </r>
       <r>    24.8821     0.0000    55.7041 </r>
       <r>    25.0097     0.0000    55.7744 </r>
       <r>    25.1372     0.0000    55.8125 </r>
       <r>    25.2647     0.0000    55.8828 </r>
       <r>    25.3923     0.0000    55.9062 </r>
       <r>    25.5198     0.0000    55.9561 </r>
       <r>    25.6473     0.0000    55.9854 </r>
       <r>    25.7749     0.0000    55.9854 </r>
       <r>    25.9024     0.0000    55.9883 </r>
       <r>    26.0299     0.0000    56.0000 </r>
       <r>    26.1575     0.0000    56.0000 </r>
       <r>    26.2850     0.0000    56.0000 </r>
       <r>    26.4125     0.0000    56.0000 </r>
       <r>    26.5401     0.0000    56.0000 </r>
       <r>    26.6676     0.0000    56.0000 </r>
       <r>    26.7951     0.0000    56.0000 </r>
       <r>    26.9227     0.0000    56.0000 </r>
       <r>    27.0502     0.0000    56.0000 </r>
       <r>    27.1777     0.0000    56.0000 </r>
       <r>    27.3053     0.0000    56.0000 </r>
       <r>    27.4328     0.0000    56.0000 </r>
       <r>    27.5603     0.0000    56.0000 </r>
       <r>    27.6879     0.0000    56.0000 </r>
      </set>
     </set>
    </array>
   </total>
  </dos>
 </calculation>
 <structure name="finalpos" >
  <crystal>
   <varray name="basis" >
    <v>      -0.00000170       3.24229352       3.24229440 </v>
    <v>       3.24229724       0.00000227       3.24229662 </v>
    <v>       3.24230079       3.24229928       0.00000317 </v>
   </varray>
   <i name="volume">     68.16918762 </i>
   <varray name="rec_basis" >
    <v>      -0.15421184       0.15421176       0.15421176 </v>
    <v>       0.15421159      -0.15421181       0.15421185 </v>
    <v>       0.15421146       0.15421172      -0.15421160 </v>
   </varray>
  </crystal>
  <varray name="positions" >
   <v>       0.00000557       0.00000632       0.99999445 </v>
   <v>       0.74999443       0.74999368       0.75000555 </v>
  </varray>
 </structure>
</modeling>
