unknown system                          
           1
    -0.000002    3.242294    3.242294
     3.242297    0.000002    3.242297
     3.242301    3.242299    0.000003
   Cd   Te
     1     1
Direct configuration=     1
   0.00000557  0.00000632  0.99999445
   0.74999443  0.74999368  0.75000555
