14.400
8.47 0 0 0 8.47 0 0 0 8.47
-1.43 0 0 0 -1.43 0 0 0 -1.43
1.43 0 0 0 1.43 0 0 0 1.43
