14.400
8.43 0 0 0 8.43 0 0 0 8.43
-1.43 0 0 0 -1.43 0 0 0 -1.43
1.43 0 0 0 1.43 0 0 0 1.43
