  16  16   0   0
  0.3408459E+02  0.9170592E-09  0.9170601E-09  0.9170609E-09  0.5000000E-15
  1.000000000000000E-004
  CAR 
 unknown system                          
     12.66464301    -10.04010850  301      2.23937794      1.00000000
    -10.040  0.0000E+00  0.0000E+00
     -9.964  0.0000E+00  0.0000E+00
     -9.889  0.0000E+00  0.0000E+00
     -9.813  0.0000E+00  0.0000E+00
     -9.737  0.0000E+00  0.0000E+00
     -9.662  0.0000E+00  0.0000E+00
     -9.586  0.0000E+00  0.0000E+00
     -9.510  0.0000E+00  0.0000E+00
     -9.435  0.0000E+00  0.0000E+00
     -9.359  0.0000E+00  0.0000E+00
     -9.283  0.0000E+00  0.0000E+00
     -9.208  0.0000E+00  0.0000E+00
     -9.132  0.0000E+00  0.0000E+00
     -9.056  0.5926E-12  0.4485E-13
     -8.981  0.7237E+00  0.5477E-01
     -8.905  0.5796E+01  0.4934E+00
     -8.829  0.7339E+01  0.1073E+01
     -8.754  0.1245E+02  0.2017E+01
     -8.678  0.1757E+02  0.3347E+01
     -8.602  0.3770E+02  0.6200E+01
     -8.526  0.7118E+02  0.1160E+02
     -8.451  0.5734E+02  0.1600E+02
     -8.375  0.0000E+00  0.1600E+02
     -8.299  0.0000E+00  0.1600E+02
     -8.224  0.0000E+00  0.1600E+02
     -8.148  0.0000E+00  0.1600E+02
     -8.072  0.0000E+00  0.1600E+02
     -7.997  0.0000E+00  0.1600E+02
     -7.921  0.0000E+00  0.1600E+02
     -7.845  0.0000E+00  0.1600E+02
     -7.770  0.0000E+00  0.1600E+02
     -7.694  0.0000E+00  0.1600E+02
     -7.618  0.0000E+00  0.1600E+02
     -7.543  0.0000E+00  0.1600E+02
     -7.467  0.0000E+00  0.1600E+02
     -7.391  0.0000E+00  0.1600E+02
     -7.316  0.0000E+00  0.1600E+02
     -7.240  0.0000E+00  0.1600E+02
     -7.164  0.0000E+00  0.1600E+02
     -7.088  0.0000E+00  0.1600E+02
     -7.013  0.0000E+00  0.1600E+02
     -6.937  0.0000E+00  0.1600E+02
     -6.861  0.0000E+00  0.1600E+02
     -6.786  0.0000E+00  0.1600E+02
     -6.710  0.0000E+00  0.1600E+02
     -6.634  0.0000E+00  0.1600E+02
     -6.559  0.0000E+00  0.1600E+02
     -6.483  0.0000E+00  0.1600E+02
     -6.407  0.0000E+00  0.1600E+02
     -6.332  0.0000E+00  0.1600E+02
     -6.256  0.0000E+00  0.1600E+02
     -6.180  0.0000E+00  0.1600E+02
     -6.105  0.3320E-12  0.1600E+02
     -6.029  0.1679E+02  0.1727E+02
     -5.953  0.2467E+03  0.3605E+02
     -5.878  0.1793E+03  0.4999E+02
     -5.802  0.1627E+03  0.6232E+02
     -5.726  0.2663E+03  0.8281E+02
     -5.651  0.1299E+02  0.8380E+02
     -5.575  0.1661E+02  0.8507E+02
     -5.499  0.2095E+02  0.8666E+02
     -5.423  0.2987E+02  0.8899E+02
     -5.348  0.3803E+02  0.9195E+02
     -5.272  0.3864E+02  0.9493E+02
     -5.196  0.1363E+02  0.9600E+02
     -5.121  0.0000E+00  0.9600E+02
     -5.045  0.0000E+00  0.9600E+02
     -4.969  0.0000E+00  0.9600E+02
     -4.894  0.0000E+00  0.9600E+02
     -4.818  0.0000E+00  0.9600E+02
     -4.742  0.0000E+00  0.9600E+02
     -4.667  0.0000E+00  0.9600E+02
     -4.591  0.0000E+00  0.9600E+02
     -4.515  0.0000E+00  0.9600E+02
     -4.440  0.0000E+00  0.9600E+02
     -4.364  0.0000E+00  0.9600E+02
     -4.288  0.0000E+00  0.9600E+02
     -4.213  0.0000E+00  0.9600E+02
     -4.137  0.0000E+00  0.9600E+02
     -4.061  0.0000E+00  0.9600E+02
     -3.986  0.0000E+00  0.9600E+02
     -3.910  0.0000E+00  0.9600E+02
     -3.834  0.0000E+00  0.9600E+02
     -3.758  0.0000E+00  0.9600E+02
     -3.683  0.0000E+00  0.9600E+02
     -3.607  0.0000E+00  0.9600E+02
     -3.531  0.0000E+00  0.9600E+02
     -3.456  0.0000E+00  0.9600E+02
     -3.380  0.0000E+00  0.9600E+02
     -3.304  0.0000E+00  0.9600E+02
     -3.229  0.0000E+00  0.9600E+02
     -3.153  0.0000E+00  0.9600E+02
     -3.077  0.0000E+00  0.9600E+02
     -3.002  0.0000E+00  0.9600E+02
     -2.926  0.0000E+00  0.9600E+02
     -2.850  0.0000E+00  0.9600E+02
     -2.775  0.0000E+00  0.9600E+02
     -2.699  0.0000E+00  0.9600E+02
     -2.623  0.0000E+00  0.9600E+02
     -2.548  0.0000E+00  0.9600E+02
     -2.472  0.0000E+00  0.9600E+02
     -2.396  0.0000E+00  0.9600E+02
     -2.320  0.1725E-11  0.9600E+02
     -2.245  0.4891E+00  0.9604E+02
     -2.169  0.4576E+01  0.9638E+02
     -2.093  0.9843E+01  0.9713E+02
     -2.018  0.3279E+02  0.9961E+02
     -1.942  0.3647E+02  0.1024E+03
     -1.866  0.1869E+02  0.1038E+03
     -1.791  0.9623E+01  0.1045E+03
     -1.715  0.1092E+02  0.1054E+03
     -1.639  0.6172E+01  0.1058E+03
     -1.564  0.1106E+02  0.1067E+03
     -1.488  0.4342E+01  0.1070E+03
     -1.412  0.5218E+01  0.1074E+03
     -1.337  0.4501E+01  0.1078E+03
     -1.261  0.6606E+01  0.1083E+03
     -1.185  0.2935E+01  0.1085E+03
     -1.110  0.5872E+01  0.1089E+03
     -1.034  0.7733E-02  0.1089E+03
     -0.958  0.5426E+01  0.1093E+03
     -0.883  0.2069E+01  0.1095E+03
     -0.807  0.6383E+00  0.1096E+03
     -0.731  0.1854E+00  0.1096E+03
     -0.655  0.8623E+01  0.1103E+03
     -0.580  0.3237E-01  0.1103E+03
     -0.504  0.2886E+01  0.1105E+03
     -0.428  0.1726E+01  0.1106E+03
     -0.353  0.3129E+01  0.1109E+03
     -0.277  0.1467E+02  0.1120E+03
     -0.201  0.1517E+02  0.1131E+03
     -0.126  0.1901E+02  0.1146E+03
     -0.050  0.8991E+01  0.1152E+03
      0.026  0.9198E+01  0.1159E+03
      0.101  0.1847E+02  0.1174E+03
      0.177  0.1477E+02  0.1185E+03
      0.253  0.1274E+02  0.1195E+03
      0.328  0.8351E+01  0.1202E+03
      0.404  0.2364E+02  0.1219E+03
      0.480  0.1305E+02  0.1229E+03
      0.555  0.1961E+02  0.1244E+03
      0.631  0.2092E+02  0.1261E+03
      0.707  0.1848E+02  0.1275E+03
      0.782  0.1653E+02  0.1287E+03
      0.858  0.1005E+02  0.1296E+03
      0.934  0.2521E+02  0.1315E+03
      1.010  0.6190E+01  0.1320E+03
      1.085  0.2353E+02  0.1338E+03
      1.161  0.1247E+02  0.1348E+03
      1.237  0.1597E+02  0.1360E+03
      1.312  0.1341E+02  0.1370E+03
      1.388  0.1650E+02  0.1383E+03
      1.464  0.2356E+02  0.1401E+03
      1.539  0.2937E+01  0.1404E+03
      1.615  0.1059E+02  0.1412E+03
      1.691  0.1033E+02  0.1420E+03
      1.766  0.1978E+01  0.1421E+03
      1.842  0.1072E+02  0.1429E+03
      1.918  0.3799E+01  0.1432E+03
      1.993  0.4874E+01  0.1436E+03
      2.069  0.1463E+01  0.1437E+03
      2.145  0.3388E+01  0.1440E+03
      2.220  0.3670E+00  0.1440E+03
      2.296  0.0000E+00  0.1440E+03
      2.372  0.0000E+00  0.1440E+03
      2.448  0.0000E+00  0.1440E+03
      2.523  0.0000E+00  0.1440E+03
      2.599  0.0000E+00  0.1440E+03
      2.675  0.0000E+00  0.1440E+03
      2.750  0.0000E+00  0.1440E+03
      2.826  0.9527E-05  0.1440E+03
      2.902  0.1223E+00  0.1440E+03
      2.977  0.0000E+00  0.1440E+03
      3.053  0.0000E+00  0.1440E+03
      3.129  0.0000E+00  0.1440E+03
      3.204  0.0000E+00  0.1440E+03
      3.280  0.0000E+00  0.1440E+03
      3.356  0.0000E+00  0.1440E+03
      3.431  0.6298E-03  0.1440E+03
      3.507  0.9781E+00  0.1441E+03
      3.583  0.0000E+00  0.1441E+03
      3.658  0.1488E+00  0.1441E+03
      3.734  0.5853E+00  0.1441E+03
      3.810  0.0000E+00  0.1441E+03
      3.885  0.4727E-08  0.1441E+03
      3.961  0.2685E+01  0.1443E+03
      4.037  0.1625E+01  0.1445E+03
      4.113  0.1442E+01  0.1446E+03
      4.188  0.2536E+01  0.1448E+03
      4.264  0.1152E-03  0.1448E+03
      4.340  0.9389E+01  0.1455E+03
      4.415  0.6441E+01  0.1461E+03
      4.491  0.7031E+01  0.1466E+03
      4.567  0.6520E-15  0.1466E+03
      4.642  0.3645E+01  0.1469E+03
      4.718  0.1101E+01  0.1469E+03
      4.794  0.5739E+01  0.1474E+03
      4.869  0.1759E+02  0.1488E+03
      4.945  0.1841E+02  0.1502E+03
      5.021  0.1376E+02  0.1513E+03
      5.096  0.1679E+02  0.1526E+03
      5.172  0.9864E+01  0.1533E+03
      5.248  0.9983E+01  0.1542E+03
      5.323  0.3882E+02  0.1571E+03
      5.399  0.1583E+02  0.1583E+03
      5.475  0.6754E+01  0.1588E+03
      5.550  0.8656E+01  0.1595E+03
      5.626  0.0000E+00  0.1595E+03
      5.702  0.8753E+00  0.1595E+03
      5.778  0.9374E+01  0.1602E+03
      5.853  0.2178E+02  0.1619E+03
      5.929  0.5689E+01  0.1623E+03
      6.005  0.1339E+02  0.1634E+03
      6.080  0.2971E+01  0.1636E+03
      6.156  0.8895E+01  0.1643E+03
      6.232  0.2451E+01  0.1645E+03
      6.307  0.5863E+01  0.1650E+03
      6.383  0.6724E-04  0.1650E+03
      6.459  0.7341E+01  0.1655E+03
      6.534  0.8187E+00  0.1656E+03
      6.610  0.1076E+02  0.1664E+03
      6.686  0.2978E+02  0.1687E+03
      6.761  0.7959E+01  0.1694E+03
      6.837  0.2155E+02  0.1710E+03
      6.913  0.1940E+02  0.1725E+03
      6.988  0.7787E+01  0.1731E+03
      7.064  0.8460E+01  0.1738E+03
      7.140  0.1506E+02  0.1749E+03
      7.216  0.1448E+02  0.1760E+03
      7.291  0.8970E+01  0.1767E+03
      7.367  0.1438E+02  0.1779E+03
      7.443  0.9464E+01  0.1786E+03
      7.518  0.1750E+02  0.1799E+03
      7.594  0.2089E+02  0.1815E+03
      7.670  0.1546E+02  0.1827E+03
      7.745  0.2116E+02  0.1843E+03
      7.821  0.1514E+02  0.1855E+03
      7.897  0.2042E+02  0.1871E+03
      7.972  0.9963E+01  0.1878E+03
      8.048  0.1419E+02  0.1889E+03
      8.124  0.8096E+01  0.1895E+03
      8.199  0.2385E+02  0.1913E+03
      8.275  0.1560E+02  0.1925E+03
      8.351  0.2004E+01  0.1927E+03
      8.426  0.9040E+01  0.1934E+03
      8.502  0.6840E+01  0.1939E+03
      8.578  0.5872E+01  0.1944E+03
      8.653  0.4102E+01  0.1947E+03
      8.729  0.1163E+02  0.1956E+03
      8.805  0.9674E+01  0.1963E+03
      8.881  0.9796E+01  0.1971E+03
      8.956  0.8957E+01  0.1978E+03
      9.032  0.1370E+02  0.1988E+03
      9.108  0.2343E+02  0.2006E+03
      9.183  0.1451E+02  0.2018E+03
      9.259  0.5839E+01  0.2022E+03
      9.335  0.1241E+02  0.2032E+03
      9.410  0.3606E+01  0.2034E+03
      9.486  0.6438E+01  0.2039E+03
      9.562  0.5471E+01  0.2043E+03
      9.637  0.1594E+02  0.2056E+03
      9.713  0.1309E+01  0.2057E+03
      9.789  0.6025E+01  0.2061E+03
      9.864  0.2164E+02  0.2078E+03
      9.940  0.1424E+02  0.2089E+03
     10.016  0.1247E+02  0.2098E+03
     10.091  0.8134E+01  0.2105E+03
     10.167  0.7455E+01  0.2111E+03
     10.243  0.1378E+02  0.2121E+03
     10.318  0.1860E+02  0.2135E+03
     10.394  0.2660E+02  0.2155E+03
     10.470  0.1005E+02  0.2163E+03
     10.546  0.1154E+02  0.2172E+03
     10.621  0.1674E+02  0.2185E+03
     10.697  0.1150E+02  0.2194E+03
     10.773  0.2306E+02  0.2211E+03
     10.848  0.1486E+02  0.2223E+03
     10.924  0.1052E+02  0.2231E+03
     11.000  0.3859E-03  0.2231E+03
     11.075  0.2936E+01  0.2234E+03
     11.151  0.3695E+01  0.2236E+03
     11.227  0.2331E-02  0.2236E+03
     11.302  0.3179E+01  0.2239E+03
     11.378  0.0000E+00  0.2239E+03
     11.454  0.0000E+00  0.2239E+03
     11.529  0.5617E+00  0.2239E+03
     11.605  0.1143E-03  0.2239E+03
     11.681  0.7339E+00  0.2240E+03
     11.756  0.0000E+00  0.2240E+03
     11.832  0.0000E+00  0.2240E+03
     11.908  0.0000E+00  0.2240E+03
     11.984  0.0000E+00  0.2240E+03
     12.059  0.0000E+00  0.2240E+03
     12.135  0.0000E+00  0.2240E+03
     12.211  0.0000E+00  0.2240E+03
     12.286  0.0000E+00  0.2240E+03
     12.362  0.0000E+00  0.2240E+03
     12.438  0.0000E+00  0.2240E+03
     12.513  0.0000E+00  0.2240E+03
     12.589  0.0000E+00  0.2240E+03
     12.665  0.0000E+00  0.2240E+03
