       N       E                     dE             d eps       ncg     rms          rms(c)
DAV:   1     0.947059522326E+03    0.94706E+03   -0.69052E+04 25088   0.126E+03
DAV:   2     0.653940425505E+00   -0.94641E+03   -0.91280E+03 28252   0.289E+02
DAV:   3    -0.453639317326E+02   -0.46018E+02   -0.45798E+02 31416   0.639E+01
DAV:   4    -0.459551428000E+02   -0.59121E+00   -0.59113E+00 29820   0.638E+00
DAV:   5    -0.459616119295E+02   -0.64691E-02   -0.64691E-02 31108   0.699E-01    0.153E+01
DAV:   6    -0.440516561227E+02    0.19100E+01   -0.37593E+00 27272   0.951E+00    0.126E+01
DAV:   7    -0.439247453954E+02    0.12691E+00   -0.11922E+00 28840   0.265E+00    0.483E+00
DAV:   8    -0.439174305035E+02    0.73149E-02   -0.11283E-01 27552   0.157E+00    0.146E+00
DAV:   9    -0.439176383002E+02   -0.20780E-03   -0.11463E-02 30380   0.503E-01    0.410E-01
DAV:  10    -0.439173151864E+02    0.32311E-03   -0.19119E-03 28252   0.202E-01    0.148E-01
DAV:  11    -0.439174692713E+02   -0.15408E-03   -0.73835E-04 29428   0.875E-02    0.801E-02
DAV:  12    -0.439174553160E+02    0.13955E-04   -0.61832E-05 29540   0.314E-02    0.585E-02
DAV:  13    -0.439174604729E+02   -0.51569E-05   -0.67387E-05 28952   0.213E-02    0.100E-01
DAV:  14    -0.439174583319E+02    0.21410E-05   -0.16489E-05 27832   0.138E-02    0.229E-02
DAV:  15    -0.439174585714E+02   -0.23953E-06   -0.14365E-06 30996   0.244E-03    0.177E-02
DAV:  16    -0.439174588401E+02   -0.26870E-06   -0.16482E-07 28252   0.137E-03    0.169E-02
DAV:  17    -0.439174592815E+02   -0.44138E-06   -0.16033E-07 28336   0.100E-03    0.895E-03
DAV:  18    -0.439174593738E+02   -0.92276E-07   -0.89495E-09 24164   0.343E-04    0.789E-03
DAV:  19    -0.439174594829E+02   -0.10909E-06   -0.15011E-07 28252   0.833E-04    0.300E-03
DAV:  20    -0.439174595352E+02   -0.52354E-07   -0.30708E-08 28336   0.343E-04    0.137E-03
DAV:  21    -0.439174595189E+02    0.16333E-07   -0.70348E-10 17724   0.872E-05    0.151E-03
DAV:  22    -0.439174595444E+02   -0.25537E-07   -0.40199E-09 16464   0.134E-04    0.876E-04
DAV:  23    -0.439174595721E+02   -0.27665E-07   -0.27371E-09 17584   0.973E-05    0.247E-04
DAV:  24    -0.439174595766E+02   -0.45566E-08   -0.26338E-10 16632   0.391E-05
   1 F= -.43917460E+02 E0= -.43917460E+02  d E =-.341640E-12
