 vasp.6.1.2 22Jul20 (build Dec 07 2020 09:43:49) complex                        
  
 executed on             LinuxIFC date 2023.08.20  11:38:53
 running   28 mpi-ranks, with    1 threads/rank
 distrk:  each k-point on   28 cores,    1 groups
 distr:  one band on NCORE=   1 cores,   28 groups


--------------------------------------------------------------------------------------------------------


 INCAR:
 POTCAR:    PAW_PBE Cd 06Sep2000                  
 POTCAR:    PAW_PBE Te 08Apr2002                  
 POTCAR:    PAW_PBE Cd 06Sep2000                  
   VRHFIN =Cd : s2 d10                                                                              
   LEXCH  = PE                                                                                      
   EATOM  =  1293.1815 eV,   95.0462 Ry                                                             
                                                                                                    
   TITEL  = PAW_PBE Cd 06Sep2000                                                                    
   LULTRA =        F    use ultrasoft PP ?                                                          
   IUNSCR =        1    unscreen: 0-lin 1-nonlin 2-no                                               
   RPACOR =    2.000    partial core radius                                                         
   POMASS =  112.411; ZVAL   =   12.000    mass and valenz                                          
   RCORE  =    2.300    outmost cutoff radius                                                       
   RWIGS  =    2.980; RWIGS  =    1.577    wigner-seitz radius (au A)                               
   ENMAX  =  274.336; ENMIN  =  205.752 eV                                                          
   RCLOC  =    2.054    cutoff for local pot                                                        
   LCOR   =        T    correct aug charges                                                         
   LPAW   =        T    paw PP                                                                      
   EAUG   =  456.106                                                                                
   DEXC   =    0.000                                                                                
   RMAX   =    2.358    core radius for proj-oper                                                   
   RAUG   =    1.300    factor for augmentation sphere                                              
   RDEP   =    2.450    radius for radial grids                                                     
   RDEPT  =    1.955    core radius for aug-charge                                                  
                                                                                                    
   Atomic configuration                                                                             
   12 entries                                                                                       
     n  l   j            E        occ.                                                              
     1  0  0.50    -26519.7817   2.0000                                                             
     2  0  0.50     -3936.9612   2.0000                                                             
     2  1  1.50     -3532.2230   6.0000                                                             
     3  0  0.50      -733.7908   2.0000                                                             
     3  1  1.50      -601.0792   6.0000                                                             
     3  2  2.50      -393.5307  10.0000                                                             
     4  0  0.50      -105.8977   2.0000                                                             
     4  1  1.50       -66.9488   6.0000                                                             
     4  2  2.50       -11.7331  10.0000                                                             
     5  0  0.50        -5.6592   2.0000                                                             
     5  1  0.50        -1.3606   0.0000                                                             
     4  3  2.50        -1.3606   0.0000                                                             
   Description                                                                                      
     l       E           TYP  RCUT    TYP  RCUT                                                     
     2    -11.7331479     23  2.300                                                                 
     2    -13.0937305     23  2.300                                                                 
     0     -5.6591502     23  2.300                                                                 
     0     -1.5561433     23  2.300                                                                 
     1     -2.7211652     23  2.300                                                                 
     1      8.3548275     23  2.300                                                                 
  local pseudopotential read in
  partial core-charges read in
  partial kinetic energy density read in
  atomic valenz-charges read in
  non local Contribution for L=           2  read in
    real space projection operators read in
  non local Contribution for L=           2  read in
    real space projection operators read in
  non local Contribution for L=           0  read in
    real space projection operators read in
  non local Contribution for L=           0  read in
    real space projection operators read in
  non local Contribution for L=           1  read in
    real space projection operators read in
  non local Contribution for L=           1  read in
    real space projection operators read in
    PAW grid and wavefunctions read in
 
   number of l-projection  operators is LMAX  =           6
   number of lm-projection operators is LMMAX =          18
 
 POTCAR:    PAW_PBE Te 08Apr2002                  
   VRHFIN =Te: s2p4                                                                                 
   LEXCH  = PE                                                                                      
   EATOM  =   223.2721 eV,   16.4100 Ry                                                             
                                                                                                    
   TITEL  = PAW_PBE Te 08Apr2002                                                                    
   LULTRA =        F    use ultrasoft PP ?                                                          
   IUNSCR =        1    unscreen: 0-lin 1-nonlin 2-no                                               
   RPACOR =    2.200    partial core radius                                                         
   POMASS =  127.600; ZVAL   =    6.000    mass and valenz                                          
   RCORE  =    2.300    outmost cutoff radius                                                       
   RWIGS  =    2.900; RWIGS  =    1.535    wigner-seitz radius (au A)                               
   ENMAX  =  174.982; ENMIN  =  131.236 eV                                                          
   ICORE  =        3    local potential                                                             
   LCOR   =        T    correct aug charges                                                         
   LPAW   =        T    paw PP                                                                      
   EAUG   =  368.792                                                                                
   DEXC   =    0.000                                                                                
   RMAX   =    2.345    core radius for proj-oper                                                   
   RAUG   =    1.300    factor for augmentation sphere                                              
   RDEP   =    2.397    radius for radial grids                                                     
   RDEPT  =    2.174    core radius for aug-charge                                                  
                                                                                                    
   Atomic configuration                                                                             
   13 entries                                                                                       
     n  l   j            E        occ.                                                              
     1  0  0.50    -31621.2075   2.0000                                                             
     2  0  0.50     -4848.7941   2.0000                                                             
     2  1  1.50     -4352.1960   6.0000                                                             
     3  0  0.50      -964.9612   2.0000                                                             
     3  1  1.50      -803.6179   6.0000                                                             
     3  2  2.50      -559.8710  10.0000                                                             
     4  0  0.50      -164.3522   2.0000                                                             
     4  1  1.50      -114.3756   6.0000                                                             
     4  2  2.50       -41.6483  10.0000                                                             
     5  0  0.50       -15.1072   2.0000                                                             
     5  1  0.50        -5.9526   4.0000                                                             
     5  2  1.50        -5.4423   0.0000                                                             
     4  3  2.50        -5.4423   0.0000                                                             
   Description                                                                                      
     l       E           TYP  RCUT    TYP  RCUT                                                     
     0    -15.1072389     23  2.300                                                                 
     0    -16.4678215     23  2.300                                                                 
     1     -5.9526306     23  2.300                                                                 
     1     -2.4873968     23  2.300                                                                 
     2     -5.4423304     23  2.300                                                                 
     3     -1.3605826     23  2.300                                                                 
  local pseudopotential read in
  partial core-charges read in
  partial kinetic energy density read in
  atomic valenz-charges read in
  non local Contribution for L=           0  read in
    real space projection operators read in
  non local Contribution for L=           0  read in
    real space projection operators read in
  non local Contribution for L=           1  read in
    real space projection operators read in
  non local Contribution for L=           1  read in
    real space projection operators read in
  non local Contribution for L=           2  read in
    real space projection operators read in
    PAW grid and wavefunctions read in
 
   number of l-projection  operators is LMAX  =           5
   number of lm-projection operators is LMMAX =          13
 
 -----------------------------------------------------------------------------
|                                                                             |
|               ----> ADVICE to this user running VASP <----                  |
|                                                                             |
|     You enforced a specific xc type in the INCAR file but a different       |
|     type was found in the POTCAR file.                                      |
|     I HOPE YOU KNOW WHAT YOU ARE DOING!                                     |
|                                                                             |
 -----------------------------------------------------------------------------

  PAW_PBE Cd 06Sep2000                  :
 energy of atom  1       EATOM=-1293.1815
 kinetic energy error for atom=    0.0041 (will be added to EATOM!!)
  PAW_PBE Te 08Apr2002                  :
 energy of atom  2       EATOM= -223.2721
 kinetic energy error for atom=    0.0004 (will be added to EATOM!!)
 
 
 POSCAR: generated by phonopy
  positions in direct lattice
  No initial velocities read in
 exchange correlation table for  LEXCH =       14
   RHO(1)=    0.500       N(1)  =     2000
   RHO(2)=  100.500       N(2)  =     4000
 


--------------------------------------------------------------------------------------------------------


 ion  position               nearest neighbor table
   1  0.001  0.000  1.000-  15 2.80  14 2.81  12 2.81  16 2.82
   2  0.500  0.000  1.000-  13 2.81  16 2.81  11 2.81  15 2.81
   3  0.000  0.500  1.000-  16 2.81  13 2.81  10 2.81  14 2.81
   4  0.500  0.500  1.000-  15 2.81  14 2.81   9 2.81  13 2.81
   5  0.000  0.000  0.500-  10 2.81  11 2.81  16 2.81  12 2.81
   6  0.500  0.000  0.500-   9 2.81  12 2.81  15 2.81  11 2.81
   7  0.000  0.500  0.500-  12 2.81   9 2.81  14 2.81  10 2.81
   8  0.500  0.500  0.500-  11 2.81  10 2.81  13 2.81   9 2.81
   9  0.375  0.375  0.375-   6 2.81   7 2.81   4 2.81   8 2.81
  10  0.875  0.375  0.375-   5 2.81   8 2.81   3 2.81   7 2.81
  11  0.375  0.875  0.375-   8 2.81   5 2.81   2 2.81   6 2.81
  12  0.875  0.875  0.375-   7 2.81   6 2.81   5 2.81   1 2.81
  13  0.375  0.375  0.875-   2 2.81   3 2.81   8 2.81   4 2.81
  14  0.875  0.375  0.875-   4 2.81   1 2.81   7 2.81   3 2.81
  15  0.375  0.875  0.875-   1 2.80   4 2.81   6 2.81   2 2.81
  16  0.875  0.875  0.875-   3 2.81   2 2.81   5 2.81   1 2.82
 
 -----------------------------------------------------------------------------
|                                                                             |
|           W    W    AA    RRRRR   N    N  II  N    N   GGGG   !!!           |
|           W    W   A  A   R    R  NN   N  II  NN   N  G    G  !!!           |
|           W    W  A    A  R    R  N N  N  II  N N  N  G       !!!           |
|           W WW W  AAAAAA  RRRRR   N  N N  II  N  N N  G  GGG   !            |
|           WW  WW  A    A  R   R   N   NN  II  N   NN  G    G                |
|           W    W  A    A  R    R  N    N  II  N    N   GGGG   !!!           |
|                                                                             |
|     The determination of the symmetry of your systems shows a strong        |
|     dependence on the tolerance parameter SYMPREC. This is often the        |
|     result of "noise" in the structural parameters (lattice vectors         |
|     and/or ionic positions). Set NWRITE=3 for more details.                 |
|                                                                             |
 -----------------------------------------------------------------------------

  LATTYP: Found a face centered cubic cell.
 ALAT       =    12.9692001400
  
  Lattice vectors:
  
 A1 = (  -0.0000034000,   6.4845870400,   6.4845888000)
 A2 = (   6.4845944800,   0.0000045400,   6.4845932400)
 A3 = (   6.4846015800,   6.4845985600,   0.0000063400)


Analysis of symmetry for initial positions (statically):
=====================================================================
 Subroutine PRICEL returns:
 Original cell was already a primitive cell.
 

 Routine SETGRP: Setting up the symmetry group for a 
 face centered cubic supercell.


 Subroutine GETGRP returns: Found  1 space group operations
 (whereof  1 operations were pure point group operations)
 out of a pool of 48 trial point group operations.


The static configuration has the point symmetry C_1 .


Analysis of symmetry for dynamics (positions and initial velocities):
=====================================================================
 Subroutine PRICEL returns:
 Original cell was already a primitive cell.
 

 Routine SETGRP: Setting up the symmetry group for a 
 face centered cubic supercell.


 Subroutine GETGRP returns: Found  1 space group operations
 (whereof  1 operations were pure point group operations)
 out of a pool of 48 trial point group operations.


The dynamic configuration has the point symmetry C_1 .


 Subroutine INISYM returns: Found  1 space group operations
 (whereof  1 operations are pure point group operations),
 and found     1 'primitive' translations


----------------------------------------------------------------------------------------

                                     Primitive cell                                     

  volume of cell :     545.3535

  direct lattice vectors                    reciprocal lattice vectors
    -0.000003400  6.484587040  6.484588800    -0.077105921  0.077105882  0.077105882
     6.484594480  0.000004540  6.484593240     0.077105793 -0.077105904  0.077105924
     6.484601580  6.484598560  0.000006340     0.077105730  0.077105860 -0.077105799

  length of vectors
     9.170592183  9.170600583  9.170609366     0.133551327  0.133551291  0.133551157

  position of ions in fractional coordinates (direct lattice)
     0.001093227  0.000003160  0.999997225
     0.500002785  0.000003160  0.999997225
     0.000002785  0.500003160  0.999997225
     0.500002785  0.500003160  0.999997225
     0.000002785  0.000003160  0.499997225
     0.500002785  0.000003160  0.499997225
     0.000002785  0.500003160  0.499997225
     0.500002785  0.500003160  0.499997225
     0.374997215  0.374996840  0.375002775
     0.874997215  0.374996840  0.375002775
     0.374997215  0.874996840  0.375002775
     0.874997215  0.874996840  0.375002775
     0.374997215  0.374996840  0.875002775
     0.874997215  0.374996840  0.875002775
     0.374997215  0.874996840  0.875002775
     0.874997215  0.874996840  0.875002775

  ion indices of the primitive-cell ions
   primitive index   ion index
                 1           1
                 2           2
                 3           3
                 4           4
                 5           5
                 6           6
                 7           7
                 8           8
                 9           9
                10          10
                11          11
                12          12
                13          13
                14          14
                15          15
                16          16

----------------------------------------------------------------------------------------

 
 
 KPOINTS: Automatic mesh                          

Automatic generation of k-mesh.
Space group operators:
 irot       det(A)        alpha          n_x          n_y          n_z        tau_x        tau_y        tau_z
    1     1.000000     0.000000     1.000000     0.000000     0.000000     0.000000     0.000000     0.000000
 
 Subroutine IBZKPT returns following result:
 ===========================================
 
 Found    112 irreducible k-points:
 
 Following reciprocal coordinates:
            Coordinates               Weight
  0.000000  0.000000  0.000000      1.000000
  0.166667 -0.000000  0.000000      2.000000
  0.000000  0.166667 -0.000000      2.000000
 -0.000000  0.000000  0.166667      2.000000
  0.166667  0.166667  0.166667      2.000000
  0.333333 -0.000000  0.000000      2.000000
  0.000000  0.333333 -0.000000      2.000000
 -0.000000  0.000000  0.333333      2.000000
  0.333333  0.333333  0.333333      2.000000
  0.500000 -0.000000  0.000000      1.000000
  0.000000  0.500000  0.000000      1.000000
 -0.000000  0.000000  0.500000      1.000000
  0.500000  0.500000  0.500000      1.000000
  0.166667  0.166667  0.000000      2.000000
 -0.000000  0.166667  0.166667      2.000000
  0.166667  0.000000  0.166667      2.000000
  0.333333  0.166667  0.000000      2.000000
  0.000000  0.333333  0.166667      2.000000
  0.166667  0.000000  0.333333      2.000000
  0.166667  0.166667 -0.166667      2.000000
  0.333333  0.166667  0.333333      2.000000
  0.166667  0.333333  0.000000      2.000000
  0.166667 -0.166667 -0.166667      2.000000
  0.333333  0.333333  0.166667      2.000000
 -0.000000  0.166667  0.333333      2.000000
 -0.166667  0.166667 -0.166667      2.000000
  0.166667  0.333333  0.333333      2.000000
  0.333333 -0.000000  0.166667      2.000000
  0.500000  0.166667  0.000000      2.000000
  0.000000  0.500000  0.166667      2.000000
  0.166667  0.000000  0.500000      2.000000
  0.166667  0.166667 -0.333333      2.000000
  0.500000  0.333333  0.500000      2.000000
  0.166667  0.500000  0.000000      2.000000
  0.333333 -0.166667 -0.166667      2.000000
  0.500000  0.500000  0.333333      2.000000
 -0.000000  0.166667  0.500000      2.000000
 -0.166667  0.333333 -0.166667      2.000000
  0.333333  0.500000  0.500000      2.000000
  0.500000 -0.000000  0.166667      2.000000
 -0.333333  0.166667 -0.000000      2.000000
 -0.000000 -0.333333  0.166667      2.000000
  0.166667 -0.000000 -0.333333      2.000000
  0.166667  0.166667  0.500000      2.000000
 -0.333333  0.500000 -0.333333      2.000000
  0.166667 -0.333333 -0.000000      2.000000
  0.500000 -0.166667 -0.166667      2.000000
 -0.333333 -0.333333  0.500000      2.000000
  0.000000  0.166667 -0.333333      2.000000
 -0.166667  0.500000 -0.166667      2.000000
  0.500000 -0.333333 -0.333333      2.000000
 -0.333333  0.000000  0.166667      2.000000
 -0.166667  0.166667  0.000000      2.000000
 -0.000000 -0.166667  0.166667      2.000000
  0.166667 -0.000000 -0.166667      2.000000
  0.166667  0.166667  0.333333      2.000000
 -0.166667 -0.333333 -0.166667      2.000000
 -0.333333 -0.166667 -0.166667      2.000000
  0.333333  0.333333  0.000000      2.000000
 -0.000000  0.333333  0.333333      2.000000
  0.333333  0.000000  0.333333      2.000000
  0.500000  0.333333  0.000000      2.000000
 -0.000000  0.500000  0.333333      2.000000
  0.333333 -0.000000  0.500000      2.000000
  0.333333  0.333333 -0.166667      2.000000
  0.500000  0.166667  0.500000      2.000000
  0.333333  0.500000  0.000000      2.000000
  0.166667 -0.333333 -0.333333      2.000000
  0.500000  0.500000  0.166667      2.000000
 -0.000000  0.333333  0.500000      2.000000
 -0.333333  0.166667 -0.333333      2.000000
  0.166667  0.500000  0.500000      2.000000
  0.500000 -0.000000  0.333333      2.000000
 -0.333333  0.333333  0.000000      2.000000
 -0.000000 -0.333333  0.333333      2.000000
  0.333333 -0.000000 -0.333333      2.000000
  0.333333  0.333333 -0.333333      2.000000
 -0.333333  0.333333 -0.333333      2.000000
  0.333333 -0.333333 -0.333333      2.000000
  0.500000  0.500000  0.000000      1.000000
 -0.000000  0.500000  0.500000      1.000000
  0.500000 -0.000000  0.500000      1.000000
  0.500000  0.333333  0.166667      2.000000
  0.166667  0.500000  0.333333      2.000000
  0.333333  0.166667  0.500000      2.000000
  0.333333  0.166667 -0.166667      2.000000
  0.500000  0.166667  0.333333      2.000000
  0.166667 -0.333333 -0.166667      2.000000
  0.166667  0.333333 -0.166667      2.000000
  0.166667 -0.166667 -0.333333      2.000000
  0.333333  0.500000  0.166667      2.000000
 -0.166667  0.166667 -0.333333      2.000000
 -0.333333  0.166667 -0.166667      2.000000
  0.166667  0.333333  0.500000      2.000000
 -0.333333  0.333333  0.166667      2.000000
  0.166667 -0.333333  0.333333      2.000000
  0.333333  0.166667 -0.333333      2.000000
 -0.333333  0.333333  0.500000      2.000000
  0.166667  0.500000 -0.166667      2.000000
  0.333333 -0.166667 -0.333333      2.000000
  0.500000 -0.333333  0.333333      2.000000
 -0.166667  0.166667  0.500000      2.000000
 -0.333333  0.333333 -0.166667      2.000000
  0.333333  0.500000 -0.333333      2.000000
  0.500000 -0.166667  0.166667      2.000000
 -0.166667 -0.333333  0.333333      2.000000
 -0.333333  0.500000  0.166667      2.000000
  0.166667 -0.333333  0.500000      2.000000
  0.500000  0.166667 -0.333333      2.000000
  0.500000  0.333333 -0.166667      2.000000
 -0.333333  0.166667  0.500000      2.000000
  0.166667  0.500000 -0.333333      2.000000
 
 Following cartesian coordinates:
            Coordinates               Weight
  0.000000  0.000000  0.000000      1.000000
 -0.012851  0.012851  0.012851      2.000000
  0.012851 -0.012851  0.012851      2.000000
  0.012851  0.012851 -0.012851      2.000000
  0.012851  0.012851  0.012851      2.000000
 -0.025702  0.025702  0.025702      2.000000
  0.025702 -0.025702  0.025702      2.000000
  0.025702  0.025702 -0.025702      2.000000
  0.025702  0.025702  0.025702      2.000000
 -0.038553  0.038553  0.038553      1.000000
  0.038553 -0.038553  0.038553      1.000000
  0.038553  0.038553 -0.038553      1.000000
  0.038553  0.038553  0.038553      1.000000
 -0.000000 -0.000000  0.025702      2.000000
  0.025702 -0.000000  0.000000      2.000000
 -0.000000  0.025702  0.000000      2.000000
 -0.012851  0.012851  0.038553      2.000000
  0.038553 -0.012851  0.012851      2.000000
  0.012851  0.038553 -0.012851      2.000000
 -0.012851 -0.012851  0.038553      2.000000
  0.012851  0.038553  0.012851      2.000000
  0.012851 -0.012851  0.038553      2.000000
 -0.038553  0.012851  0.012851      2.000000
  0.012851  0.012851  0.038553      2.000000
  0.038553  0.012851 -0.012851      2.000000
  0.012851 -0.038553  0.012851      2.000000
  0.038553  0.012851  0.012851      2.000000
 -0.012851  0.038553  0.012851      2.000000
 -0.025702  0.025702  0.051404      2.000000
  0.051404 -0.025702  0.025702      2.000000
  0.025702  0.051404 -0.025702      2.000000
 -0.025702 -0.025702  0.051404      2.000000
  0.025702  0.051404  0.025702      2.000000
  0.025702 -0.025702  0.051404      2.000000
 -0.051404  0.025702  0.025702      2.000000
  0.025702  0.025702  0.051404      2.000000
  0.051404  0.025702 -0.025702      2.000000
  0.025702 -0.051404  0.025702      2.000000
  0.051404  0.025702  0.025702      2.000000
 -0.025702  0.051404  0.025702      2.000000
  0.038553 -0.038553 -0.012851      2.000000
 -0.012851  0.038553 -0.038553      2.000000
 -0.038553 -0.012851  0.038553      2.000000
  0.038553  0.038553 -0.012851      2.000000
  0.038553 -0.089957  0.038553      2.000000
 -0.038553  0.038553 -0.012851      2.000000
 -0.064255  0.038553  0.038553      2.000000
  0.038553  0.038553 -0.089957      2.000000
 -0.012851 -0.038553  0.038553      2.000000
  0.038553 -0.064255  0.038553      2.000000
 -0.089957  0.038553  0.038553      2.000000
  0.038553 -0.012851 -0.038553      2.000000
  0.025702 -0.025702  0.000000      2.000000
 -0.000000  0.025702 -0.025702      2.000000
 -0.025702  0.000000  0.025702      2.000000
  0.025702  0.025702  0.000000      2.000000
 -0.025702  0.000000 -0.025702      2.000000
  0.000000 -0.025702 -0.025702      2.000000
 -0.000000 -0.000000  0.051404      2.000000
  0.051404 -0.000000  0.000000      2.000000
 -0.000000  0.051404  0.000000      2.000000
 -0.012851  0.012851  0.064255      2.000000
  0.064255 -0.012851  0.012851      2.000000
  0.012851  0.064255 -0.012851      2.000000
 -0.012851 -0.012851  0.064255      2.000000
  0.012851  0.064255  0.012851      2.000000
  0.012851 -0.012851  0.064255      2.000000
 -0.064255  0.012851  0.012851      2.000000
  0.012851  0.012851  0.064255      2.000000
  0.064255  0.012851 -0.012851      2.000000
  0.012851 -0.064255  0.012851      2.000000
  0.064255  0.012851  0.012851      2.000000
 -0.012851  0.064255  0.012851      2.000000
  0.051404 -0.051404  0.000000      2.000000
 -0.000000  0.051404 -0.051404      2.000000
 -0.051404  0.000000  0.051404      2.000000
 -0.025702 -0.025702  0.077106      2.000000
  0.025702 -0.077106  0.025702      2.000000
 -0.077106  0.025702  0.025702      2.000000
 -0.000000 -0.000000  0.077106      1.000000
  0.077106 -0.000000  0.000000      1.000000
 -0.000000  0.077106  0.000000      1.000000
 -0.000000  0.025702  0.051404      2.000000
  0.051404 -0.000000  0.025702      2.000000
  0.025702  0.051404  0.000000      2.000000
 -0.025702 -0.000000  0.051404      2.000000
 -0.000000  0.051404  0.025702      2.000000
 -0.051404  0.025702 -0.000000      2.000000
 -0.000000 -0.025702  0.051404      2.000000
 -0.051404  0.000000  0.025702      2.000000
  0.025702 -0.000000  0.051404      2.000000
  0.000000 -0.051404  0.025702      2.000000
  0.025702 -0.051404 -0.000000      2.000000
  0.051404  0.025702  0.000000      2.000000
  0.064255 -0.038553 -0.012851      2.000000
 -0.012851  0.064255 -0.038553      2.000000
 -0.038553 -0.012851  0.064255      2.000000
  0.089957 -0.012851 -0.038553      2.000000
  0.012851 -0.038553  0.064255      2.000000
 -0.064255  0.012851  0.038553      2.000000
 -0.038553  0.089957 -0.012851      2.000000
  0.064255  0.012851 -0.038553      2.000000
  0.038553 -0.064255  0.012851      2.000000
 -0.012851 -0.038553  0.089957      2.000000
 -0.038553  0.064255  0.012851      2.000000
  0.012851  0.038553 -0.064255      2.000000
  0.077106 -0.051404  0.000000      2.000000
 -0.000000  0.077106 -0.051404      2.000000
 -0.051404  0.000000  0.077106      2.000000
 -0.025702 -0.000000  0.077106      2.000000
  0.077106 -0.000000 -0.051404      2.000000
 -0.000000 -0.051404  0.077106      2.000000
 


--------------------------------------------------------------------------------------------------------




 Dimension of arrays:
   k-points           NKPTS =    112   k-points in BZ     NKDIM =    112   number of bands    NBANDS=    112
   number of dos      NEDOS =    301   number of ions     NIONS =     16
   non local maximal  LDIM  =      6   non local SUM 2l+1 LMDIM =     18
   total plane-waves  NPLWV = 512000
   max r-space proj   IRMAX =      1   max aug-charges    IRDMAX= 436994
   dimension x,y,z NGX =    80 NGY =   80 NGZ =   80
   dimension x,y,z NGXF=   160 NGYF=  160 NGZF=  160
   support grid    NGXF=   320 NGYF=  320 NGZF=  320
   ions per type =               8   8
   NGX,Y,Z   is equivalent  to a cutoff of  14.50, 14.50, 14.50 a.u.
   NGXF,Y,Z  is equivalent  to a cutoff of  29.01, 29.01, 29.00 a.u.

 SYSTEM =  unknown system                          
 POSCAR =  generated by phonopy                    

 Startparameter for this run:
   NWRITE =      2    write-flag & timer
   PREC   = accura    normal or accurate (medium, high low for compatibility)
   ISTART =      0    job   : 0-new  1-cont  2-samecut
   ICHARG =      2    charge: 1-file 2-atom 10-const
   ISPIN  =      1    spin polarized calculation?
   LNONCOLLINEAR =      F non collinear calculations
   LSORBIT =      F    spin-orbit coupling
   INIWAV =      1    electr: 0-lowe 1-rand  2-diag
   LASPH  =      F    aspherical Exc in radial PAW
   METAGGA=      F    non-selfconsistent MetaGGA calc.

 Electronic Relaxation 1
   ENCUT  =  600.0 eV  44.10 Ry    6.64 a.u.  18.32 18.32 18.32*2*pi/ulx,y,z
   ENINI  =  600.0     initial cutoff
   ENAUG  =  456.1 eV  augmentation charge cutoff
   NELM   =     60;   NELMIN=  2; NELMDL=  0     # of ELM steps 
   EDIFF  = 0.1E-07   stopping-criterion for ELM
   LREAL  =      F    real-space projection
   NLSPLINE    = F    spline interpolate recip. space projectors
   LCOMPAT=      F    compatible to vasp.4.4
   GGA_COMPAT  = T    GGA compatible to vasp.4.4-vasp.4.6
   LMAXPAW     = -100 max onsite density
   LMAXMIX     =    2 max onsite mixed and CHGCAR
   VOSKOWN=      0    Vosko Wilk Nusair interpolation
   ROPT   =    0.00000   0.00000
 Ionic relaxation
   EDIFFG = 0.1E-06   stopping-criterion for IOM
   NSW    =      0    number of steps for IOM
   NBLOCK =      1;   KBLOCK =      1    inner block; outer block 
   IBRION =     -1    ionic relax: 0-MD 1-quasi-New 2-CG
   NFREE  =      0    steps in history (QN), initial steepest desc. (CG)
   ISIF   =      2    stress and relaxation
   IWAVPR =     10    prediction:  0-non 1-charg 2-wave 3-comb
   ISYM   =      2    0-nonsym 1-usesym 2-fastsym
   LCORR  =      T    Harris-Foulkes like correction to forces

   POTIM  = 0.5000    time-step for ionic-motion
   TEIN   =    0.0    initial temperature
   TEBEG  =    0.0;   TEEND  =   0.0 temperature during run
   SMASS  =  -3.00    Nose mass-parameter (am)
   estimated Nose-frequenzy (Omega)   =  0.10E-29 period in steps = 0.13E+47 mass=  -0.192E-26a.u.
   SCALEE = 1.0000    scale energy and forces
   NPACO  =    256;   APACO  = 16.0  distance and # of slots for P.C.
   PSTRESS=    0.0 pullay stress

  Mass of Ions in am
   POMASS = 112.41127.60
  Ionic Valenz
   ZVAL   =  12.00  6.00
  Atomic Wigner-Seitz radii
   RWIGS  =  -1.00 -1.00
  virtual crystal weights 
   VCA    =   1.00  1.00
   NELECT =     144.0000    total number of electrons
   NUPDOWN=      -1.0000    fix difference up-down

 DOS related values:
   EMIN   =  10.00;   EMAX   =-10.00  energy-range for DOS
   EFERMI =   0.00
   ISMEAR =     0;   SIGMA  =   0.01  broadening in eV -4-tet -1-fermi 0-gaus

 Electronic relaxation 2 (details)
   IALGO  =     38    algorithm
   LDIAG  =      T    sub-space diagonalisation (order eigenvalues)
   LSUBROT=      F    optimize rotation matrix (better conditioning)
   TURBO    =      0    0=normal 1=particle mesh
   IRESTART =      0    0=no restart 2=restart with 2 vectors
   NREBOOT  =      0    no. of reboots
   NMIN     =      0    reboot dimension
   EREF     =   0.00    reference energy to select bands
   IMIX   =      4    mixing-type and parameters
     AMIX     =   0.40;   BMIX     =  1.00
     AMIX_MAG =   1.60;   BMIX_MAG =  1.00
     AMIN     =   0.10
     WC   =   100.;   INIMIX=   1;  MIXPRE=   1;  MAXMIX= -45

 Intra band minimization:
   WEIMIN = 0.0000     energy-eigenvalue tresh-hold
   EBREAK =  0.22E-10  absolut break condition
   DEPER  =   0.30     relativ break condition  

   TIME   =   0.40     timestep for ELM

  volume/ion in A,a.u.               =      34.08       230.01
  Fermi-wavevector in a.u.,A,eV,Ry     =   1.050275  1.984732 15.008277  1.103077
  Thomas-Fermi vector in A             =   2.185271
 
 Write flags
   LWAVE        =      F    write WAVECAR
   LDOWNSAMPLE  =      F    k-point downsampling of WAVECAR
   LCHARG       =      F    write CHGCAR
   LVTOT        =      F    write LOCPOT, total local potential
   LVHAR        =      F    write LOCPOT, Hartree potential only
   LELF         =      F    write electronic localiz. function (ELF)
   LORBIT       =      0    0 simple, 1 ext, 2 COOP (PROOUT), +10 PAW based schemes


 Dipole corrections
   LMONO  =      F    monopole corrections only (constant potential shift)
   LDIPOL =      F    correct potential (dipole corrections)
   IDIPOL =      0    1-x, 2-y, 3-z, 4-all directions 
   EPSILON=  1.0000000 bulk dielectric constant

 Exchange correlation treatment:
   GGA     =    PS    GGA type
   LEXCH   =    14    internal setting for exchange type
   VOSKOWN=      0    Vosko Wilk Nusair interpolation
   LHFCALC =     F    Hartree Fock is set to
   LHFONE  =     F    Hartree Fock one center treatment
   AEXX    =    0.0000 exact exchange contribution

 Linear response parameters
   LEPSILON=     F    determine dielectric tensor
   LRPA    =     F    only Hartree local field effects (RPA)
   LNABLA  =     F    use nabla operator in PAW spheres
   LVEL    =     F    velocity operator in full k-point grid
   LINTERFAST=   F  fast interpolation
   KINTER  =     0    interpolate to denser k-point grid
   CSHIFT  =0.1000    complex shift for real part using Kramers Kronig
   OMEGAMAX=  -1.0    maximum frequency
   DEG_THRESHOLD= 0.2000000E-02 threshold for treating states as degnerate
   RTIME   =   -0.100 relaxation time in fs
  (WPLASMAI=    0.000 imaginary part of plasma frequency in eV, 0.658/RTIME)
   DFIELD  = 0.0000000 0.0000000 0.0000000 field for delta impulse in time
 
 Orbital magnetization related:
   ORBITALMAG=     F  switch on orbital magnetization
   LCHIMAG   =     F  perturbation theory with respect to B field
   DQ        =  0.001000  dq finite difference perturbation B field
   LLRAUG    =     F  two centre corrections for induced B field



--------------------------------------------------------------------------------------------------------


 Static calculation
 charge density and potential will be updated during run
 non-spin polarized calculation
 Variant of blocked Davidson
 Davidson routine will perform the subspace rotation
 perform sub-space diagonalisation
    after iterative eigenvector-optimisation
 modified Broyden-mixing scheme, WC =      100.0
 initial mixing is a Kerker type mixing with AMIX =  0.4000 and BMIX =      1.0000
 Hartree-type preconditioning will be used
 using additional bands           40
 reciprocal scheme for non local part
 use partial core corrections
 calculate Harris-corrections to forces 
   (improved forces if not selfconsistent)
 use gradient corrections 
 use of overlap-Matrix (Vanderbilt PP)
 Gauss-broadening in eV      SIGMA  =   0.01


--------------------------------------------------------------------------------------------------------


  energy-cutoff  :      600.00
  volume of cell :      545.35
      direct lattice vectors                 reciprocal lattice vectors
    -0.000003400  6.484587040  6.484588800    -0.077105921  0.077105882  0.077105882
     6.484594480  0.000004540  6.484593240     0.077105793 -0.077105904  0.077105924
     6.484601580  6.484598560  0.000006340     0.077105730  0.077105860 -0.077105799

  length of vectors
     9.170592183  9.170600583  9.170609366     0.133551327  0.133551291  0.133551157


 
 k-points in units of 2pi/SCALE and weight: Automatic mesh                          
   0.00000000  0.00000000  0.00000000       0.005
  -0.01285099  0.01285098  0.01285098       0.009
   0.01285097 -0.01285098  0.01285099       0.009
   0.01285096  0.01285098 -0.01285097       0.009
   0.01285093  0.01285097  0.01285100       0.009
  -0.02570197  0.02570196  0.02570196       0.009
   0.02570193 -0.02570197  0.02570197       0.009
   0.02570191  0.02570195 -0.02570193       0.009
   0.02570187  0.02570195  0.02570200       0.009
  -0.03855296  0.03855294  0.03855294       0.005
   0.03855290 -0.03855295  0.03855296       0.005
   0.03855287  0.03855293 -0.03855290       0.005
   0.03855280  0.03855292  0.03855300       0.005
  -0.00000002 -0.00000000  0.02570197       0.009
   0.02570192 -0.00000001  0.00000002       0.009
  -0.00000003  0.02570196  0.00000001       0.009
  -0.01285101  0.01285098  0.03855295       0.009
   0.03855289 -0.01285099  0.01285101       0.009
   0.01285092  0.03855293 -0.01285095       0.009
  -0.01285098 -0.01285098  0.03855293       0.009
   0.01285090  0.03855293  0.01285101       0.009
   0.01285094 -0.01285099  0.03855295       0.009
  -0.03855291  0.01285099  0.01285096       0.009
   0.01285091  0.01285097  0.03855297       0.009
   0.03855288  0.01285097 -0.01285095       0.009
   0.01285100 -0.03855294  0.01285097       0.009
   0.03855285  0.01285097  0.01285102       0.009
  -0.01285102  0.03855294  0.01285099       0.009
  -0.02570200  0.02570196  0.05140393       0.009
   0.05140385 -0.02570198  0.02570200       0.009
   0.02570188  0.05140391 -0.02570192       0.009
  -0.02570193 -0.02570196  0.05140390       0.009
   0.02570184  0.05140390  0.02570202       0.009
   0.02570191 -0.02570197  0.05140394       0.009
  -0.05140389  0.02570197  0.02570194       0.009
   0.02570185  0.02570194  0.05140397       0.009
   0.05140383  0.02570195 -0.02570191       0.009
   0.02570196 -0.05140393  0.02570196       0.009
   0.05140379  0.02570194  0.02570202       0.009
  -0.02570201  0.05140392  0.02570197       0.009
   0.03855294 -0.03855294 -0.01285097       0.009
  -0.01285098  0.03855294 -0.03855294       0.009
  -0.03855290 -0.01285097  0.03855291       0.009
   0.03855284  0.03855293 -0.01285093       0.009
   0.03855296 -0.08995687  0.03855293       0.009
  -0.03855292  0.03855295 -0.01285099       0.009
  -0.06425488  0.03855295  0.03855292       0.009
   0.03855291  0.03855294 -0.08995683       0.009
  -0.01285094 -0.03855294  0.03855292       0.009
   0.03855293 -0.06425491  0.03855295       0.009
  -0.08995680  0.03855296  0.03855290       0.009
   0.03855293 -0.01285098 -0.03855293       0.009
   0.02570195 -0.02570196  0.00000001       0.009
  -0.00000001  0.02570196 -0.02570195       0.009
  -0.02570194  0.00000000  0.02570195       0.009
   0.02570189  0.02570195  0.00000003       0.009
  -0.02570190  0.00000001 -0.02570199       0.009
   0.00000005 -0.02570195 -0.02570198       0.009
  -0.00000004 -0.00000001  0.05140394       0.009
   0.05140384 -0.00000001  0.00000004       0.009
  -0.00000006  0.05140391  0.00000003       0.009
  -0.01285103  0.01285097  0.06425492       0.009
   0.06425481 -0.01285100  0.01285103       0.009
   0.01285089  0.06425489 -0.01285094       0.009
  -0.01285100 -0.01285098  0.06425490       0.009
   0.01285087  0.06425489  0.01285103       0.009
   0.01285092 -0.01285099  0.06425492       0.009
  -0.06425483  0.01285099  0.01285094       0.009
   0.01285089  0.01285097  0.06425494       0.009
   0.06425480  0.01285096 -0.01285092       0.009
   0.01285103 -0.06425490  0.01285096       0.009
   0.06425477  0.01285096  0.01285104       0.009
  -0.01285105  0.06425489  0.01285101       0.009
   0.05140390 -0.05140393  0.00000001       0.009
  -0.00000002  0.05140392 -0.05140391       0.009
  -0.05140388  0.00000001  0.05140389       0.009
  -0.02570195 -0.02570196  0.07710587       0.009
   0.02570199 -0.07710588  0.02570195       0.009
  -0.07710581  0.02570198  0.02570192       0.009
  -0.00000006 -0.00000001  0.07710590       0.005
   0.07710576 -0.00000002  0.00000006       0.005
  -0.00000010  0.07710587  0.00000004       0.005
  -0.00000007  0.02570195  0.05140395       0.009
   0.05140382 -0.00000002  0.02570201       0.009
   0.02570186  0.05140391  0.00000005       0.009
  -0.02570196 -0.00000000  0.05140391       0.009
  -0.00000009  0.05140391  0.02570200       0.009
  -0.05140387  0.02570197 -0.00000003       0.009
  -0.00000001 -0.02570196  0.05140392       0.009
  -0.05140386  0.00000001  0.02570193       0.009
   0.02570188 -0.00000001  0.05140396       0.009
   0.00000004 -0.05140392  0.02570194       0.009
   0.02570198 -0.05140392 -0.00000001       0.009
   0.05140381  0.02570194  0.00000006       0.009
   0.06425486 -0.03855295 -0.01285095       0.009
  -0.01285101  0.06425490 -0.03855293       0.009
  -0.03855292 -0.01285098  0.06425488       0.009
   0.08995677 -0.01285100 -0.03855289       0.009
   0.01285095 -0.03855295  0.06425491       0.009
  -0.06425485  0.01285099  0.03855291       0.009
  -0.03855298  0.08995686 -0.01285097       0.009
   0.06425482  0.01285097 -0.03855289       0.009
   0.03855295 -0.06425491  0.01285098       0.009
  -0.01285099 -0.03855294  0.08995686       0.009
  -0.03855297  0.06425490  0.01285099       0.009
   0.01285097  0.03855294 -0.06425489       0.009
   0.07710583 -0.05140394  0.00000003       0.009
  -0.00000005  0.07710588 -0.05140389       0.009
  -0.05140391  0.00000000  0.07710586       0.009
  -0.02570198 -0.00000000  0.07710588       0.009
   0.07710580 -0.00000001 -0.05140387       0.009
  -0.00000000 -0.05140393  0.07710588       0.009
 
 k-points in reciprocal lattice and weights: Automatic mesh                          
   0.00000000  0.00000000  0.00000000       0.005
   0.16666667 -0.00000000  0.00000000       0.009
   0.00000000  0.16666667 -0.00000000       0.009
  -0.00000000  0.00000000  0.16666667       0.009
   0.16666667  0.16666667  0.16666667       0.009
   0.33333333 -0.00000000  0.00000000       0.009
   0.00000000  0.33333333 -0.00000000       0.009
  -0.00000000  0.00000000  0.33333333       0.009
   0.33333333  0.33333333  0.33333333       0.009
   0.50000000 -0.00000000  0.00000000       0.005
   0.00000000  0.50000000  0.00000000       0.005
  -0.00000000  0.00000000  0.50000000       0.005
   0.50000000  0.50000000  0.50000000       0.005
   0.16666667  0.16666667  0.00000000       0.009
  -0.00000000  0.16666667  0.16666667       0.009
   0.16666667  0.00000000  0.16666667       0.009
   0.33333333  0.16666667  0.00000000       0.009
   0.00000000  0.33333333  0.16666667       0.009
   0.16666667  0.00000000  0.33333333       0.009
   0.16666667  0.16666667 -0.16666667       0.009
   0.33333333  0.16666667  0.33333333       0.009
   0.16666667  0.33333333  0.00000000       0.009
   0.16666667 -0.16666667 -0.16666667       0.009
   0.33333333  0.33333333  0.16666667       0.009
  -0.00000000  0.16666667  0.33333333       0.009
  -0.16666667  0.16666667 -0.16666667       0.009
   0.16666667  0.33333333  0.33333333       0.009
   0.33333333 -0.00000000  0.16666667       0.009
   0.50000000  0.16666667  0.00000000       0.009
   0.00000000  0.50000000  0.16666667       0.009
   0.16666667  0.00000000  0.50000000       0.009
   0.16666667  0.16666667 -0.33333333       0.009
   0.50000000  0.33333333  0.50000000       0.009
   0.16666667  0.50000000  0.00000000       0.009
   0.33333333 -0.16666667 -0.16666667       0.009
   0.50000000  0.50000000  0.33333333       0.009
  -0.00000000  0.16666667  0.50000000       0.009
  -0.16666667  0.33333333 -0.16666667       0.009
   0.33333333  0.50000000  0.50000000       0.009
   0.50000000 -0.00000000  0.16666667       0.009
  -0.33333333  0.16666667 -0.00000000       0.009
  -0.00000000 -0.33333333  0.16666667       0.009
   0.16666667 -0.00000000 -0.33333333       0.009
   0.16666667  0.16666667  0.50000000       0.009
  -0.33333333  0.50000000 -0.33333333       0.009
   0.16666667 -0.33333333 -0.00000000       0.009
   0.50000000 -0.16666667 -0.16666667       0.009
  -0.33333333 -0.33333333  0.50000000       0.009
   0.00000000  0.16666667 -0.33333333       0.009
  -0.16666667  0.50000000 -0.16666667       0.009
   0.50000000 -0.33333333 -0.33333333       0.009
  -0.33333333  0.00000000  0.16666667       0.009
  -0.16666667  0.16666667  0.00000000       0.009
  -0.00000000 -0.16666667  0.16666667       0.009
   0.16666667 -0.00000000 -0.16666667       0.009
   0.16666667  0.16666667  0.33333333       0.009
  -0.16666667 -0.33333333 -0.16666667       0.009
  -0.33333333 -0.16666667 -0.16666667       0.009
   0.33333333  0.33333333  0.00000000       0.009
  -0.00000000  0.33333333  0.33333333       0.009
   0.33333333  0.00000000  0.33333333       0.009
   0.50000000  0.33333333  0.00000000       0.009
  -0.00000000  0.50000000  0.33333333       0.009
   0.33333333 -0.00000000  0.50000000       0.009
   0.33333333  0.33333333 -0.16666667       0.009
   0.50000000  0.16666667  0.50000000       0.009
   0.33333333  0.50000000  0.00000000       0.009
   0.16666667 -0.33333333 -0.33333333       0.009
   0.50000000  0.50000000  0.16666667       0.009
  -0.00000000  0.33333333  0.50000000       0.009
  -0.33333333  0.16666667 -0.33333333       0.009
   0.16666667  0.50000000  0.50000000       0.009
   0.50000000 -0.00000000  0.33333333       0.009
  -0.33333333  0.33333333  0.00000000       0.009
  -0.00000000 -0.33333333  0.33333333       0.009
   0.33333333 -0.00000000 -0.33333333       0.009
   0.33333333  0.33333333 -0.33333333       0.009
  -0.33333333  0.33333333 -0.33333333       0.009
   0.33333333 -0.33333333 -0.33333333       0.009
   0.50000000  0.50000000  0.00000000       0.005
  -0.00000000  0.50000000  0.50000000       0.005
   0.50000000 -0.00000000  0.50000000       0.005
   0.50000000  0.33333333  0.16666667       0.009
   0.16666667  0.50000000  0.33333333       0.009
   0.33333333  0.16666667  0.50000000       0.009
   0.33333333  0.16666667 -0.16666667       0.009
   0.50000000  0.16666667  0.33333333       0.009
   0.16666667 -0.33333333 -0.16666667       0.009
   0.16666667  0.33333333 -0.16666667       0.009
   0.16666667 -0.16666667 -0.33333333       0.009
   0.33333333  0.50000000  0.16666667       0.009
  -0.16666667  0.16666667 -0.33333333       0.009
  -0.33333333  0.16666667 -0.16666667       0.009
   0.16666667  0.33333333  0.50000000       0.009
  -0.33333333  0.33333333  0.16666667       0.009
   0.16666667 -0.33333333  0.33333333       0.009
   0.33333333  0.16666667 -0.33333333       0.009
  -0.33333333  0.33333333  0.50000000       0.009
   0.16666667  0.50000000 -0.16666667       0.009
   0.33333333 -0.16666667 -0.33333333       0.009
   0.50000000 -0.33333333  0.33333333       0.009
  -0.16666667  0.16666667  0.50000000       0.009
  -0.33333333  0.33333333 -0.16666667       0.009
   0.33333333  0.50000000 -0.33333333       0.009
   0.50000000 -0.16666667  0.16666667       0.009
  -0.16666667 -0.33333333  0.33333333       0.009
  -0.33333333  0.50000000  0.16666667       0.009
   0.16666667 -0.33333333  0.50000000       0.009
   0.50000000  0.16666667 -0.33333333       0.009
   0.50000000  0.33333333 -0.16666667       0.009
  -0.33333333  0.16666667  0.50000000       0.009
   0.16666667  0.50000000 -0.33333333       0.009
 
 position of ions in fractional coordinates (direct lattice) 
   0.00109323  0.00000316  0.99999723
   0.50000278  0.00000316  0.99999723
   0.00000278  0.50000316  0.99999723
   0.50000278  0.50000316  0.99999723
   0.00000278  0.00000316  0.49999723
   0.50000278  0.00000316  0.49999723
   0.00000278  0.50000316  0.49999723
   0.50000278  0.50000316  0.49999723
   0.37499722  0.37499684  0.37500277
   0.87499722  0.37499684  0.37500277
   0.37499722  0.87499684  0.37500277
   0.87499722  0.87499684  0.37500277
   0.37499722  0.37499684  0.87500277
   0.87499722  0.37499684  0.87500277
   0.37499722  0.87499684  0.87500277
   0.87499722  0.87499684  0.87500277
 
 position of ions in cartesian coordinates  (Angst):
   6.48460407  6.49166969  0.00711596
   6.48460238  9.72689214  3.24233929
   9.72690132  6.48460089  3.24234151
   9.72689962  9.72689441  6.48463591
   3.24230329  3.24229934  0.00004172
   3.24230159  6.48459286  3.24233612
   6.48460053  3.24230161  3.24233834
   6.48459883  6.48459513  6.48463274
   4.86344475  4.86344624  4.86340709
   4.86344305  8.10573976  8.10570149
   8.10574199  4.86344851  8.10570371
   8.10574029  8.10574203 11.34799811
   8.10574554  8.10574552  4.86341026
   8.10574384 11.34803904  8.10570466
  11.34804278  8.10574779  8.10570688
  11.34804108 11.34804131 11.34800128
 


--------------------------------------------------------------------------------------------------------


 k-point   1 :   0.0000 0.0000 0.0000  plane waves:   18149
 k-point   2 :   0.1667-0.0000 0.0000  plane waves:   18222
 k-point   3 :   0.0000 0.1667-0.0000  plane waves:   18222
 k-point   4 :  -0.0000 0.0000 0.1667  plane waves:   18222
 k-point   5 :   0.1667 0.1667 0.1667  plane waves:   18222
 k-point   6 :   0.3333-0.0000 0.0000  plane waves:   18228
 k-point   7 :   0.0000 0.3333-0.0000  plane waves:   18228
 k-point   8 :  -0.0000 0.0000 0.3333  plane waves:   18228
 k-point   9 :   0.3333 0.3333 0.3333  plane waves:   18228
 k-point  10 :   0.5000-0.0000 0.0000  plane waves:   18222
 k-point  11 :   0.0000 0.5000 0.0000  plane waves:   18222
 k-point  12 :  -0.0000 0.0000 0.5000  plane waves:   18222
 k-point  13 :   0.5000 0.5000 0.5000  plane waves:   18222
 k-point  14 :   0.1667 0.1667 0.0000  plane waves:   18182
 k-point  15 :  -0.0000 0.1667 0.1667  plane waves:   18182
 k-point  16 :   0.1667 0.0000 0.1667  plane waves:   18182
 k-point  17 :   0.3333 0.1667 0.0000  plane waves:   18187
 k-point  18 :   0.0000 0.3333 0.1667  plane waves:   18187
 k-point  19 :   0.1667 0.0000 0.3333  plane waves:   18187
 k-point  20 :   0.1667 0.1667-0.1667  plane waves:   18187
 k-point  21 :   0.3333 0.1667 0.3333  plane waves:   18187
 k-point  22 :   0.1667 0.3333 0.0000  plane waves:   18187
 k-point  23 :   0.1667-0.1667-0.1667  plane waves:   18187
 k-point  24 :   0.3333 0.3333 0.1667  plane waves:   18187
 k-point  25 :  -0.0000 0.1667 0.3333  plane waves:   18187
 k-point  26 :  -0.1667 0.1667-0.1667  plane waves:   18187
 k-point  27 :   0.1667 0.3333 0.3333  plane waves:   18187
 k-point  28 :   0.3333-0.0000 0.1667  plane waves:   18187
 k-point  29 :   0.5000 0.1667 0.0000  plane waves:   18198
 k-point  30 :   0.0000 0.5000 0.1667  plane waves:   18198
 k-point  31 :   0.1667 0.0000 0.5000  plane waves:   18198
 k-point  32 :   0.1667 0.1667-0.3333  plane waves:   18198
 k-point  33 :   0.5000 0.3333 0.5000  plane waves:   18198
 k-point  34 :   0.1667 0.5000 0.0000  plane waves:   18198
 k-point  35 :   0.3333-0.1667-0.1667  plane waves:   18198
 k-point  36 :   0.5000 0.5000 0.3333  plane waves:   18198
 k-point  37 :  -0.0000 0.1667 0.5000  plane waves:   18198
 k-point  38 :  -0.1667 0.3333-0.1667  plane waves:   18198
 k-point  39 :   0.3333 0.5000 0.5000  plane waves:   18198
 k-point  40 :   0.5000-0.0000 0.1667  plane waves:   18198
 k-point  41 :  -0.3333 0.1667-0.0000  plane waves:   18194
 k-point  42 :  -0.0000-0.3333 0.1667  plane waves:   18194
 k-point  43 :   0.1667-0.0000-0.3333  plane waves:   18194
 k-point  44 :   0.1667 0.1667 0.5000  plane waves:   18194
 k-point  45 :  -0.3333 0.5000-0.3333  plane waves:   18194
 k-point  46 :   0.1667-0.3333-0.0000  plane waves:   18194
 k-point  47 :   0.5000-0.1667-0.1667  plane waves:   18194
 k-point  48 :  -0.3333-0.3333 0.5000  plane waves:   18194
 k-point  49 :   0.0000 0.1667-0.3333  plane waves:   18194
 k-point  50 :  -0.1667 0.5000-0.1667  plane waves:   18194
 k-point  51 :   0.5000-0.3333-0.3333  plane waves:   18194
 k-point  52 :  -0.3333 0.0000 0.1667  plane waves:   18194
 k-point  53 :  -0.1667 0.1667 0.0000  plane waves:   18220
 k-point  54 :  -0.0000-0.1667 0.1667  plane waves:   18220
 k-point  55 :   0.1667-0.0000-0.1667  plane waves:   18220
 k-point  56 :   0.1667 0.1667 0.3333  plane waves:   18220
 k-point  57 :  -0.1667-0.3333-0.1667  plane waves:   18220
 k-point  58 :  -0.3333-0.1667-0.1667  plane waves:   18220
 k-point  59 :   0.3333 0.3333 0.0000  plane waves:   18178
 k-point  60 :  -0.0000 0.3333 0.3333  plane waves:   18178
 k-point  61 :   0.3333 0.0000 0.3333  plane waves:   18178
 k-point  62 :   0.5000 0.3333 0.0000  plane waves:   18181
 k-point  63 :  -0.0000 0.5000 0.3333  plane waves:   18181
 k-point  64 :   0.3333-0.0000 0.5000  plane waves:   18181
 k-point  65 :   0.3333 0.3333-0.1667  plane waves:   18181
 k-point  66 :   0.5000 0.1667 0.5000  plane waves:   18181
 k-point  67 :   0.3333 0.5000 0.0000  plane waves:   18181
 k-point  68 :   0.1667-0.3333-0.3333  plane waves:   18181
 k-point  69 :   0.5000 0.5000 0.1667  plane waves:   18181
 k-point  70 :  -0.0000 0.3333 0.5000  plane waves:   18181
 k-point  71 :  -0.3333 0.1667-0.3333  plane waves:   18181
 k-point  72 :   0.1667 0.5000 0.5000  plane waves:   18181
 k-point  73 :   0.5000-0.0000 0.3333  plane waves:   18181
 k-point  74 :  -0.3333 0.3333 0.0000  plane waves:   18208
 k-point  75 :  -0.0000-0.3333 0.3333  plane waves:   18208
 k-point  76 :   0.3333-0.0000-0.3333  plane waves:   18208
 k-point  77 :   0.3333 0.3333-0.3333  plane waves:   18208
 k-point  78 :  -0.3333 0.3333-0.3333  plane waves:   18208
 k-point  79 :   0.3333-0.3333-0.3333  plane waves:   18208
 k-point  80 :   0.5000 0.5000 0.0000  plane waves:   18198
 k-point  81 :  -0.0000 0.5000 0.5000  plane waves:   18198
 k-point  82 :   0.5000-0.0000 0.5000  plane waves:   18198
 k-point  83 :   0.5000 0.3333 0.1667  plane waves:   18203
 k-point  84 :   0.1667 0.5000 0.3333  plane waves:   18203
 k-point  85 :   0.3333 0.1667 0.5000  plane waves:   18203
 k-point  86 :   0.3333 0.1667-0.1667  plane waves:   18203
 k-point  87 :   0.5000 0.1667 0.3333  plane waves:   18203
 k-point  88 :   0.1667-0.3333-0.1667  plane waves:   18203
 k-point  89 :   0.1667 0.3333-0.1667  plane waves:   18203
 k-point  90 :   0.1667-0.1667-0.3333  plane waves:   18203
 k-point  91 :   0.3333 0.5000 0.1667  plane waves:   18203
 k-point  92 :  -0.1667 0.1667-0.3333  plane waves:   18203
 k-point  93 :  -0.3333 0.1667-0.1667  plane waves:   18203
 k-point  94 :   0.1667 0.3333 0.5000  plane waves:   18203
 k-point  95 :  -0.3333 0.3333 0.1667  plane waves:   18186
 k-point  96 :   0.1667-0.3333 0.3333  plane waves:   18186
 k-point  97 :   0.3333 0.1667-0.3333  plane waves:   18186
 k-point  98 :  -0.3333 0.3333 0.5000  plane waves:   18186
 k-point  99 :   0.1667 0.5000-0.1667  plane waves:   18186
 k-point 100 :   0.3333-0.1667-0.3333  plane waves:   18186
 k-point 101 :   0.5000-0.3333 0.3333  plane waves:   18186
 k-point 102 :  -0.1667 0.1667 0.5000  plane waves:   18186
 k-point 103 :  -0.3333 0.3333-0.1667  plane waves:   18186
 k-point 104 :   0.3333 0.5000-0.3333  plane waves:   18186
 k-point 105 :   0.5000-0.1667 0.1667  plane waves:   18186
 k-point 106 :  -0.1667-0.3333 0.3333  plane waves:   18186
 k-point 107 :  -0.3333 0.5000 0.1667  plane waves:   18206
 k-point 108 :   0.1667-0.3333 0.5000  plane waves:   18206
 k-point 109 :   0.5000 0.1667-0.3333  plane waves:   18206
 k-point 110 :   0.5000 0.3333-0.1667  plane waves:   18206
 k-point 111 :  -0.3333 0.1667 0.5000  plane waves:   18206
 k-point 112 :   0.1667 0.5000-0.3333  plane waves:   18206

 maximum and minimum number of plane-waves per node :     18228    18149

 maximum number of plane-waves:     18228
 maximum index in each direction: 
   IXMAX=   18   IYMAX=   18   IZMAX=   18
   IXMIN=  -18   IYMIN=  -18   IZMIN=  -18


 serial   3D FFT for wavefunctions
 parallel 3D FFT for charge:
    minimum data exchange during FFTs selected (reduces bandwidth)


 total amount of memory used by VASP MPI-rank0   808940. kBytes
=======================================================================

   base      :      30000. kBytes
   nonl-proj :     592628. kBytes
   fftplans  :      24340. kBytes
   grid      :      29260. kBytes
   one-center:        248. kBytes
   wavefun   :     132464. kBytes
 
     INWAV:  cpu time    0.0000: real time    0.0000
 Broyden mixing: mesh for mixing (old mesh)
   NGX = 37   NGY = 37   NGZ = 37
  (NGX  =160   NGY  =160   NGZ  =160)
  gives a total of  50653 points

 initial charge density was supplied:
 charge density of overlapping atoms calculated
 number of electron     144.0000000 magnetization 
 keeping initial charge density in first step


--------------------------------------------------------------------------------------------------------


 Maximum index for augmentation-charges        17347 (set IRDMAX)


--------------------------------------------------------------------------------------------------------


 First call to EWALD:  gamma=   0.217
 Maximum number of real-space cells 3x 3x 3
 Maximum number of reciprocal cells 3x 3x 3

    FEWALD:  cpu time    0.0018: real time    0.0019


--------------------------------------- Iteration      1(   1)  ---------------------------------------


    POTLOK:  cpu time    0.1828: real time    0.1850
    SETDIJ:  cpu time    0.3811: real time    0.3808
     EDDAV:  cpu time  116.7635: real time  116.6909
       DOS:  cpu time    0.0020: real time    0.0021
    --------------------------------------------
      LOOP:  cpu time  117.3294: real time  117.2588

 eigenvalue-minimisations  : 25088
 total energy-change (2. order) : 0.9470595E+03  (-0.6905176E+04)
 number of electron     144.0000000 magnetization 
 augmentation part      144.0000000 magnetization 

 Free energy of the ion-electron system (eV)
  ---------------------------------------------------
  alpha Z        PSCENC =       401.02640649
  Ewald energy   TEWEN  =     -8356.20317956
  -Hartree energ DENC   =     -4082.33259404
  -exchange      EXHF   =         0.00000000
  -V(xc)+E(xc)   XCENC  =      -165.17682600
  PAW double counting   =     11219.64626070   -10652.48958799
  entropy T*S    EENTRO =        -0.00026027
  eigenvalues    EBANDS =       452.92639943
  atomic energy  EATOM  =     12129.66290356
  Solvation  Ediel_sol  =         0.00000000
  ---------------------------------------------------
  free energy    TOTEN  =       947.05952233 eV

  energy without entropy =      947.05978260  energy(sigma->0) =      947.05965246


--------------------------------------------------------------------------------------------------------




--------------------------------------- Iteration      1(   2)  ---------------------------------------


     EDDAV:  cpu time  128.0942: real time  128.0003
       DOS:  cpu time    0.0011: real time    0.0011
    --------------------------------------------
      LOOP:  cpu time  128.0953: real time  128.0014

 eigenvalue-minimisations  : 28252
 total energy-change (2. order) :-0.9464056E+03  (-0.9128001E+03)
 number of electron     144.0000000 magnetization 
 augmentation part      144.0000000 magnetization 

 Free energy of the ion-electron system (eV)
  ---------------------------------------------------
  alpha Z        PSCENC =       401.02640649
  Ewald energy   TEWEN  =     -8356.20317956
  -Hartree energ DENC   =     -4082.33259404
  -exchange      EXHF   =         0.00000000
  -V(xc)+E(xc)   XCENC  =      -165.17682600
  PAW double counting   =     11219.64626070   -10652.48958799
  entropy T*S    EENTRO =        -0.00000000
  eigenvalues    EBANDS =      -493.47944274
  atomic energy  EATOM  =     12129.66290356
  Solvation  Ediel_sol  =         0.00000000
  ---------------------------------------------------
  free energy    TOTEN  =         0.65394043 eV

  energy without entropy =        0.65394043  energy(sigma->0) =        0.65394043


--------------------------------------------------------------------------------------------------------




--------------------------------------- Iteration      1(   3)  ---------------------------------------


     EDDAV:  cpu time  129.1778: real time  129.0811
       DOS:  cpu time    0.0011: real time    0.0011
    --------------------------------------------
      LOOP:  cpu time  129.1789: real time  129.0822

 eigenvalue-minimisations  : 31416
 total energy-change (2. order) :-0.4601787E+02  (-0.4579753E+02)
 number of electron     144.0000000 magnetization 
 augmentation part      144.0000000 magnetization 

 Free energy of the ion-electron system (eV)
  ---------------------------------------------------
  alpha Z        PSCENC =       401.02640649
  Ewald energy   TEWEN  =     -8356.20317956
  -Hartree energ DENC   =     -4082.33259404
  -exchange      EXHF   =         0.00000000
  -V(xc)+E(xc)   XCENC  =      -165.17682600
  PAW double counting   =     11219.64626070   -10652.48958799
  entropy T*S    EENTRO =        -0.00000000
  eigenvalues    EBANDS =      -539.49731489
  atomic energy  EATOM  =     12129.66290356
  Solvation  Ediel_sol  =         0.00000000
  ---------------------------------------------------
  free energy    TOTEN  =       -45.36393173 eV

  energy without entropy =      -45.36393173  energy(sigma->0) =      -45.36393173


--------------------------------------------------------------------------------------------------------




--------------------------------------- Iteration      1(   4)  ---------------------------------------


     EDDAV:  cpu time  123.8107: real time  123.7188
       DOS:  cpu time    0.0011: real time    0.0011
    --------------------------------------------
      LOOP:  cpu time  123.8118: real time  123.7199

 eigenvalue-minimisations  : 29820
 total energy-change (2. order) :-0.5912111E+00  (-0.5911258E+00)
 number of electron     144.0000000 magnetization 
 augmentation part      144.0000000 magnetization 

 Free energy of the ion-electron system (eV)
  ---------------------------------------------------
  alpha Z        PSCENC =       401.02640649
  Ewald energy   TEWEN  =     -8356.20317956
  -Hartree energ DENC   =     -4082.33259404
  -exchange      EXHF   =         0.00000000
  -V(xc)+E(xc)   XCENC  =      -165.17682600
  PAW double counting   =     11219.64626070   -10652.48958799
  entropy T*S    EENTRO =        -0.00000000
  eigenvalues    EBANDS =      -540.08852596
  atomic energy  EATOM  =     12129.66290356
  Solvation  Ediel_sol  =         0.00000000
  ---------------------------------------------------
  free energy    TOTEN  =       -45.95514280 eV

  energy without entropy =      -45.95514280  energy(sigma->0) =      -45.95514280


--------------------------------------------------------------------------------------------------------




--------------------------------------- Iteration      1(   5)  ---------------------------------------


     EDDAV:  cpu time  128.1222: real time  128.0277
       DOS:  cpu time    0.0011: real time    0.0011
    CHARGE:  cpu time    9.6125: real time    9.6052
    MIXING:  cpu time    0.0067: real time    0.0067
    --------------------------------------------
      LOOP:  cpu time  137.7425: real time  137.6407

 eigenvalue-minimisations  : 31108
 total energy-change (2. order) :-0.6469130E-02  (-0.6469078E-02)
 number of electron     144.0000001 magnetization 
 augmentation part       35.5365882 magnetization 

 Broyden mixing:
  rms(total) = 0.15286E+01    rms(broyden)= 0.15286E+01
  rms(prec ) = 0.17882E+01
  weight for this iteration     100.00

 Free energy of the ion-electron system (eV)
  ---------------------------------------------------
  alpha Z        PSCENC =       401.02640649
  Ewald energy   TEWEN  =     -8356.20317956
  -Hartree energ DENC   =     -4082.33259404
  -exchange      EXHF   =         0.00000000
  -V(xc)+E(xc)   XCENC  =      -165.17682600
  PAW double counting   =     11219.64626070   -10652.48958799
  entropy T*S    EENTRO =        -0.00000000
  eigenvalues    EBANDS =      -540.09499509
  atomic energy  EATOM  =     12129.66290356
  Solvation  Ediel_sol  =         0.00000000
  ---------------------------------------------------
  free energy    TOTEN  =       -45.96161193 eV

  energy without entropy =      -45.96161193  energy(sigma->0) =      -45.96161193


--------------------------------------------------------------------------------------------------------




--------------------------------------- Iteration      1(   6)  ---------------------------------------


    POTLOK:  cpu time    0.1259: real time    0.1298
    SETDIJ:  cpu time    0.2572: real time    0.2570
     EDDAV:  cpu time  101.1621: real time  101.0844
       DOS:  cpu time    0.0011: real time    0.0011
    CHARGE:  cpu time    6.6239: real time    6.6188
    MIXING:  cpu time    0.0111: real time    0.0136
    --------------------------------------------
      LOOP:  cpu time  108.1813: real time  108.1047

 eigenvalue-minimisations  : 27272
 total energy-change (2. order) : 0.1909956E+01  (-0.3759348E+00)
 number of electron     144.0000001 magnetization 
 augmentation part       36.2865943 magnetization 

 Broyden mixing:
  rms(total) = 0.12557E+01    rms(broyden)= 0.12557E+01
  rms(prec ) = 0.13000E+01
  weight for this iteration     100.00

 eigenvalues of (default mixing * dielectric matrix)
  average eigenvalue GAMMA=   1.8376
  1.8376

 Free energy of the ion-electron system (eV)
  ---------------------------------------------------
  alpha Z        PSCENC =       401.02640649
  Ewald energy   TEWEN  =     -8356.20317956
  -Hartree energ DENC   =     -4027.92239486
  -exchange      EXHF   =         0.00000000
  -V(xc)+E(xc)   XCENC  =      -166.17803911
  PAW double counting   =     12018.63951183   -11447.34358508
  entropy T*S    EENTRO =        -0.00000000
  eigenvalues    EBANDS =      -595.73327938
  atomic energy  EATOM  =     12129.66290356
  Solvation  Ediel_sol  =         0.00000000
  ---------------------------------------------------
  free energy    TOTEN  =       -44.05165612 eV

  energy without entropy =      -44.05165612  energy(sigma->0) =      -44.05165612


--------------------------------------------------------------------------------------------------------




--------------------------------------- Iteration      1(   7)  ---------------------------------------


    POTLOK:  cpu time    0.1229: real time    0.1255
    SETDIJ:  cpu time    0.3601: real time    0.3598
     EDDAV:  cpu time  117.5960: real time  117.5050
       DOS:  cpu time    0.0012: real time    0.0012
    CHARGE:  cpu time    9.1942: real time    9.1871
    MIXING:  cpu time    0.0046: real time    0.0046
    --------------------------------------------
      LOOP:  cpu time  127.2790: real time  127.1832

 eigenvalue-minimisations  : 28840
 total energy-change (2. order) : 0.1269107E+00  (-0.1192158E+00)
 number of electron     144.0000001 magnetization 
 augmentation part       36.5479405 magnetization 

 Broyden mixing:
  rms(total) = 0.48324E+00    rms(broyden)= 0.48324E+00
  rms(prec ) = 0.49579E+00
  weight for this iteration     100.00

 eigenvalues of (default mixing * dielectric matrix)
  average eigenvalue GAMMA=   1.6400
  1.0054  2.2745

 Free energy of the ion-electron system (eV)
  ---------------------------------------------------
  alpha Z        PSCENC =       401.02640649
  Ewald energy   TEWEN  =     -8356.20317956
  -Hartree energ DENC   =     -4016.65709784
  -exchange      EXHF   =         0.00000000
  -V(xc)+E(xc)   XCENC  =      -165.96555460
  PAW double counting   =     12924.33328906   -12353.47529769
  entropy T*S    EENTRO =        -0.00000000
  eigenvalues    EBANDS =      -606.64621481
  atomic energy  EATOM  =     12129.66290356
  Solvation  Ediel_sol  =         0.00000000
  ---------------------------------------------------
  free energy    TOTEN  =       -43.92474540 eV

  energy without entropy =      -43.92474540  energy(sigma->0) =      -43.92474540


--------------------------------------------------------------------------------------------------------




--------------------------------------- Iteration      1(   8)  ---------------------------------------


    POTLOK:  cpu time    0.1225: real time    0.1263
    SETDIJ:  cpu time    0.3456: real time    0.3453
     EDDAV:  cpu time   98.8219: real time   98.7456
       DOS:  cpu time    0.0011: real time    0.0011
    CHARGE:  cpu time    6.5917: real time    6.5866
    MIXING:  cpu time    0.0105: real time    0.0105
    --------------------------------------------
      LOOP:  cpu time  105.8933: real time  105.8154

 eigenvalue-minimisations  : 27552
 total energy-change (2. order) : 0.7314892E-02  (-0.1128324E-01)
 number of electron     144.0000001 magnetization 
 augmentation part       36.4736473 magnetization 

 Broyden mixing:
  rms(total) = 0.14552E+00    rms(broyden)= 0.14552E+00
  rms(prec ) = 0.15139E+00
  weight for this iteration     100.00

 eigenvalues of (default mixing * dielectric matrix)
  average eigenvalue GAMMA=   1.6734
  2.6048  1.2077  1.2077

 Free energy of the ion-electron system (eV)
  ---------------------------------------------------
  alpha Z        PSCENC =       401.02640649
  Ewald energy   TEWEN  =     -8356.20317956
  -Hartree energ DENC   =     -4020.90577079
  -exchange      EXHF   =         0.00000000
  -V(xc)+E(xc)   XCENC  =      -165.61888444
  PAW double counting   =     13417.84416987   -12848.16415633
  entropy T*S    EENTRO =        -0.00000000
  eigenvalues    EBANDS =      -601.55891930
  atomic energy  EATOM  =     12129.66290356
  Solvation  Ediel_sol  =         0.00000000
  ---------------------------------------------------
  free energy    TOTEN  =       -43.91743050 eV

  energy without entropy =      -43.91743050  energy(sigma->0) =      -43.91743050


--------------------------------------------------------------------------------------------------------




--------------------------------------- Iteration      1(   9)  ---------------------------------------


    POTLOK:  cpu time    0.1221: real time    0.1251
    SETDIJ:  cpu time    0.3657: real time    0.3655
     EDDAV:  cpu time  122.0531: real time  121.9589
       DOS:  cpu time    0.0011: real time    0.0011
    CHARGE:  cpu time    9.1707: real time    9.1636
    MIXING:  cpu time    0.0104: real time    0.0103
    --------------------------------------------
      LOOP:  cpu time  131.7230: real time  131.6246

 eigenvalue-minimisations  : 30380
 total energy-change (2. order) :-0.2077967E-03  (-0.1146294E-02)
 number of electron     144.0000001 magnetization 
 augmentation part       36.4943546 magnetization 

 Broyden mixing:
  rms(total) = 0.40967E-01    rms(broyden)= 0.40967E-01
  rms(prec ) = 0.44230E-01
  weight for this iteration     100.00

 eigenvalues of (default mixing * dielectric matrix)
  average eigenvalue GAMMA=   1.5685
  2.5069  1.6713  1.1025  0.9934

 Free energy of the ion-electron system (eV)
  ---------------------------------------------------
  alpha Z        PSCENC =       401.02640649
  Ewald energy   TEWEN  =     -8356.20317956
  -Hartree energ DENC   =     -4017.71486672
  -exchange      EXHF   =         0.00000000
  -V(xc)+E(xc)   XCENC  =      -165.59395641
  PAW double counting   =     13700.83243361   -13131.05533057
  entropy T*S    EENTRO =        -0.00000000
  eigenvalues    EBANDS =      -604.87204869
  atomic energy  EATOM  =     12129.66290356
  Solvation  Ediel_sol  =         0.00000000
  ---------------------------------------------------
  free energy    TOTEN  =       -43.91763830 eV

  energy without entropy =      -43.91763830  energy(sigma->0) =      -43.91763830


--------------------------------------------------------------------------------------------------------




--------------------------------------- Iteration      1(  10)  ---------------------------------------


    POTLOK:  cpu time    0.1217: real time    0.1247
    SETDIJ:  cpu time    0.2991: real time    0.2989
     EDDAV:  cpu time  100.6023: real time  100.5245
       DOS:  cpu time    0.0011: real time    0.0011
    CHARGE:  cpu time    6.5897: real time    6.5846
    MIXING:  cpu time    0.0087: real time    0.0087
    --------------------------------------------
      LOOP:  cpu time  107.6227: real time  107.5424

 eigenvalue-minimisations  : 28252
 total energy-change (2. order) : 0.3231138E-03  (-0.1911866E-03)
 number of electron     144.0000001 magnetization 
 augmentation part       36.4820705 magnetization 

 Broyden mixing:
  rms(total) = 0.14841E-01    rms(broyden)= 0.14841E-01
  rms(prec ) = 0.15760E-01
  weight for this iteration     100.00

 eigenvalues of (default mixing * dielectric matrix)
  average eigenvalue GAMMA=   1.6935
  2.5031  2.5031  1.1073  1.1073  1.2470

 Free energy of the ion-electron system (eV)
  ---------------------------------------------------
  alpha Z        PSCENC =       401.02640649
  Ewald energy   TEWEN  =     -8356.20317956
  -Hartree energ DENC   =     -4018.59697102
  -exchange      EXHF   =         0.00000000
  -V(xc)+E(xc)   XCENC  =      -165.55889674
  PAW double counting   =     13728.63560126   -13158.90854771
  entropy T*S    EENTRO =        -0.00000000
  eigenvalues    EBANDS =      -603.97463146
  atomic energy  EATOM  =     12129.66290356
  Solvation  Ediel_sol  =         0.00000000
  ---------------------------------------------------
  free energy    TOTEN  =       -43.91731519 eV

  energy without entropy =      -43.91731519  energy(sigma->0) =      -43.91731519


--------------------------------------------------------------------------------------------------------




--------------------------------------- Iteration      1(  11)  ---------------------------------------


    POTLOK:  cpu time    0.1222: real time    0.1262
    SETDIJ:  cpu time    0.3447: real time    0.3444
     EDDAV:  cpu time  118.6098: real time  118.5185
       DOS:  cpu time    0.0011: real time    0.0011
    CHARGE:  cpu time    9.0073: real time    9.0002
    MIXING:  cpu time    0.0145: real time    0.0144
    --------------------------------------------
      LOOP:  cpu time  128.0995: real time  128.0049

 eigenvalue-minimisations  : 29428
 total energy-change (2. order) :-0.1540849E-03  (-0.7383498E-04)
 number of electron     144.0000001 magnetization 
 augmentation part       36.4723349 magnetization 

 Broyden mixing:
  rms(total) = 0.80085E-02    rms(broyden)= 0.80085E-02
  rms(prec ) = 0.86720E-02
  weight for this iteration     100.00

 eigenvalues of (default mixing * dielectric matrix)
  average eigenvalue GAMMA=   1.5732
  2.5756  2.5756  1.5134  1.0677  1.0677  0.6390

 Free energy of the ion-electron system (eV)
  ---------------------------------------------------
  alpha Z        PSCENC =       401.02640649
  Ewald energy   TEWEN  =     -8356.20317956
  -Hartree energ DENC   =     -4019.39676146
  -exchange      EXHF   =         0.00000000
  -V(xc)+E(xc)   XCENC  =      -165.52531802
  PAW double counting   =     13729.52959554   -13159.78031562
  entropy T*S    EENTRO =        -0.00000000
  eigenvalues    EBANDS =      -603.23080019
  atomic energy  EATOM  =     12129.66290356
  Solvation  Ediel_sol  =         0.00000000
  ---------------------------------------------------
  free energy    TOTEN  =       -43.91746927 eV

  energy without entropy =      -43.91746927  energy(sigma->0) =      -43.91746927


--------------------------------------------------------------------------------------------------------




--------------------------------------- Iteration      1(  12)  ---------------------------------------


    POTLOK:  cpu time    0.1223: real time    0.1256
    SETDIJ:  cpu time    0.3165: real time    0.3163
     EDDAV:  cpu time  103.4567: real time  103.3769
       DOS:  cpu time    0.0011: real time    0.0011
    CHARGE:  cpu time    6.6677: real time    6.6625
    MIXING:  cpu time    0.0078: real time    0.0078
    --------------------------------------------
      LOOP:  cpu time  110.5721: real time  110.4901

 eigenvalue-minimisations  : 29540
 total energy-change (2. order) : 0.1395528E-04  (-0.6183220E-05)
 number of electron     144.0000001 magnetization 
 augmentation part       36.4736061 magnetization 

 Broyden mixing:
  rms(total) = 0.58505E-02    rms(broyden)= 0.58504E-02
  rms(prec ) = 0.60333E-02
  weight for this iteration     100.00

 eigenvalues of (default mixing * dielectric matrix)
  average eigenvalue GAMMA=   1.9557
  3.2791  3.2791  2.5740  1.4977  1.0521  1.0521  0.9556

 Free energy of the ion-electron system (eV)
  ---------------------------------------------------
  alpha Z        PSCENC =       401.02640649
  Ewald energy   TEWEN  =     -8356.20317956
  -Hartree energ DENC   =     -4019.35057659
  -exchange      EXHF   =         0.00000000
  -V(xc)+E(xc)   XCENC  =      -165.52552237
  PAW double counting   =     13729.38236826   -13159.62781221
  entropy T*S    EENTRO =        -0.00000000
  eigenvalues    EBANDS =      -603.28204289
  atomic energy  EATOM  =     12129.66290356
  Solvation  Ediel_sol  =         0.00000000
  ---------------------------------------------------
  free energy    TOTEN  =       -43.91745532 eV

  energy without entropy =      -43.91745532  energy(sigma->0) =      -43.91745532


--------------------------------------------------------------------------------------------------------




--------------------------------------- Iteration      1(  13)  ---------------------------------------


    POTLOK:  cpu time    0.1220: real time    0.1261
    SETDIJ:  cpu time    0.2881: real time    0.2878
     EDDAV:  cpu time  116.8853: real time  116.7948
       DOS:  cpu time    0.0011: real time    0.0011
    CHARGE:  cpu time    8.9921: real time    8.9850
    MIXING:  cpu time    0.0144: real time    0.0144
    --------------------------------------------
      LOOP:  cpu time  126.3029: real time  126.2093

 eigenvalue-minimisations  : 28952
 total energy-change (2. order) :-0.5156893E-05  (-0.6738654E-05)
 number of electron     144.0000001 magnetization 
 augmentation part       36.4760389 magnetization 

 Broyden mixing:
  rms(total) = 0.10008E-01    rms(broyden)= 0.10008E-01
  rms(prec ) = 0.10131E-01
  weight for this iteration     100.00

 eigenvalues of (default mixing * dielectric matrix)
  average eigenvalue GAMMA=   1.7200
[...]
  band No.  band energies     occupation 
      1      -8.7238      2.00000
      2      -8.7184      2.00000
      3      -8.6718      2.00000
      4      -8.6717      2.00000
      5      -8.5429      2.00000
      6      -8.5427      2.00000
      7      -8.4998      2.00000
      8      -8.4947      2.00000
      9      -5.9901      2.00000
     10      -5.9893      2.00000
     11      -5.9869      2.00000
     12      -5.9861      2.00000
     13      -5.9788      2.00000
     14      -5.9780      2.00000
     15      -5.9778      2.00000
     16      -5.9767      2.00000
     17      -5.9594      2.00000
     18      -5.9592      2.00000
     19      -5.9492      2.00000
     20      -5.9485      2.00000
     21      -5.9419      2.00000
     22      -5.9415      2.00000
     23      -5.9294      2.00000
     24      -5.9293      2.00000
     25      -5.8659      2.00000
     26      -5.8652      2.00000
     27      -5.8225      2.00000
     28      -5.8223      2.00000
     29      -5.8193      2.00000
     30      -5.8189      2.00000
     31      -5.8115      2.00000
     32      -5.8113      2.00000
     33      -5.7910      2.00000
     34      -5.7902      2.00000
     35      -5.7900      2.00000
     36      -5.7888      2.00000
     37      -5.7865      2.00000
     38      -5.7861      2.00000
     39      -5.7777      2.00000
     40      -5.7776      2.00000
     41      -5.7442      2.00000
     42      -5.7438      2.00000
     43      -5.6619      2.00000
     44      -5.6614      2.00000
     45      -5.3776      2.00000
     46      -5.3775      2.00000
     47      -5.2674      2.00000
     48      -5.2671      2.00000
     49      -1.9837      2.00000
     50      -1.9835      2.00000
     51      -1.8388      2.00000
     52      -1.8363      2.00000
     53      -1.1472      2.00000
     54      -1.1445      2.00000
     55      -0.7206      2.00000
     56      -0.7199      2.00000
     57      -0.3261      2.00000
     58      -0.3243      2.00000
     59      -0.2674      2.00000
     60      -0.2667      2.00000
     61       0.3892      2.00000
     62       0.3894      2.00000
     63       0.4556      2.00000
     64       0.4560      2.00000
     65       0.8929      2.00000
     66       0.8964      2.00000
     67       0.9591      2.00000
     68       0.9606      2.00000
     69       1.2478      2.00000
     70       1.2507      2.00000
     71       1.4505      2.00000
     72       1.4523      2.00000
     73       5.2069      0.00000
     74       5.2080      0.00000
     75       5.2667      0.00000
     76       5.2673      0.00000
     77       5.5286      0.00000
     78       5.5303      0.00000
     79       5.7072      0.00000
     80       5.7086      0.00000
     81       6.0383      0.00000
     82       6.0389      0.00000
     83       6.5962      0.00000
     84       6.5963      0.00000
     85       6.9645      0.00000
     86       6.9674      0.00000
     87       7.2029      0.00000
     88       7.2036      0.00000
     89       7.4226      0.00000
     90       7.4248      0.00000
     91       7.5448      0.00000
     92       7.5469      0.00000
     93       7.5862      0.00000
     94       7.5863      0.00000
     95       7.9013      0.00000
     96       7.9021      0.00000
     97       8.2687      0.00000
     98       8.2696      0.00000
     99       8.5274      0.00000
    100       8.5291      0.00000
    101       9.0244      0.00000
    102       9.0252      0.00000
    103       9.3059      0.00000
    104       9.3066      0.00000
    105       9.6024      0.00000
    106       9.6026      0.00000
    107       9.9525      0.00000
    108       9.9530      0.00000
    109      10.1022      0.00000
    110      10.1027      0.00000
    111      10.7921      0.00000
    112      10.7922      0.00000

 k-point   112 :       0.1667    0.5000   -0.3333
  band No.  band energies     occupation 
      1      -8.7215      2.00000
      2      -8.7208      2.00000
      3      -8.6743      2.00000
      4      -8.6691      2.00000
      5      -8.5454      2.00000
      6      -8.5403      2.00000
      7      -8.4975      2.00000
      8      -8.4969      2.00000
      9      -5.9900      2.00000
     10      -5.9892      2.00000
     11      -5.9870      2.00000
     12      -5.9861      2.00000
     13      -5.9789      2.00000
     14      -5.9780      2.00000
     15      -5.9777      2.00000
     16      -5.9768      2.00000
     17      -5.9596      2.00000
     18      -5.9591      2.00000
     19      -5.9491      2.00000
     20      -5.9488      2.00000
     21      -5.9418      2.00000
     22      -5.9416      2.00000
     23      -5.9295      2.00000
     24      -5.9290      2.00000
     25      -5.8656      2.00000
     26      -5.8654      2.00000
     27      -5.8226      2.00000
     28      -5.8222      2.00000
     29      -5.8192      2.00000
     30      -5.8190      2.00000
     31      -5.8114      2.00000
     32      -5.8113      2.00000
     33      -5.7910      2.00000
     34      -5.7902      2.00000
     35      -5.7897      2.00000
     36      -5.7890      2.00000
     37      -5.7866      2.00000
     38      -5.7860      2.00000
     39      -5.7779      2.00000
     40      -5.7775      2.00000
     41      -5.7442      2.00000
     42      -5.7438      2.00000
     43      -5.6619      2.00000
     44      -5.6614      2.00000
     45      -5.3777      2.00000
     46      -5.3773      2.00000
     47      -5.2672      2.00000
     48      -5.2672      2.00000
     49      -1.9844      2.00000
     50      -1.9827      2.00000
     51      -1.8378      2.00000
     52      -1.8374      2.00000
     53      -1.1459      2.00000
     54      -1.1458      2.00000
     55      -0.7214      2.00000
     56      -0.7192      2.00000
     57      -0.3257      2.00000
     58      -0.3247      2.00000
     59      -0.2684      2.00000
     60      -0.2656      2.00000
     61       0.3884      2.00000
     62       0.3901      2.00000
     63       0.4541      2.00000
     64       0.4576      2.00000
     65       0.8945      2.00000
     66       0.8948      2.00000
     67       0.9595      2.00000
     68       0.9601      2.00000
     69       1.2484      2.00000
     70       1.2501      2.00000
     71       1.4504      2.00000
     72       1.4525      2.00000
     73       5.2075      0.00000
     74       5.2076      0.00000
     75       5.2669      0.00000
     76       5.2670      0.00000
     77       5.5293      0.00000
     78       5.5297      0.00000
     79       5.7079      0.00000
     80       5.7079      0.00000
     81       6.0380      0.00000
     82       6.0392      0.00000
     83       6.5962      0.00000
     84       6.5962      0.00000
     85       6.9658      0.00000
     86       6.9661      0.00000
     87       7.2019      0.00000
     88       7.2045      0.00000
     89       7.4234      0.00000
     90       7.4241      0.00000
     91       7.5455      0.00000
     92       7.5462      0.00000
     93       7.5859      0.00000
     94       7.5866      0.00000
     95       7.9005      0.00000
     96       7.9029      0.00000
     97       8.2683      0.00000
     98       8.2699      0.00000
     99       8.5281      0.00000
    100       8.5285      0.00000
    101       9.0240      0.00000
    102       9.0255      0.00000
    103       9.3061      0.00000
    104       9.3063      0.00000
    105       9.6023      0.00000
    106       9.6027      0.00000
    107       9.9525      0.00000
    108       9.9529      0.00000
    109      10.1016      0.00000
    110      10.1034      0.00000
    111      10.7920      0.00000
    112      10.7924      0.00000


--------------------------------------------------------------------------------------------------------


 soft charge-density along one line, spin component           1
         0         1         2         3         4         5         6         7         8         9
 total charge-density along one line
 
 pseudopotential strength for first ion, spin component:           1
-17.939   0.000   0.000  -0.000   0.000 -17.980   0.000   0.000
  0.000 -17.939  -0.000   0.000   0.000   0.000 -17.980  -0.000
  0.000  -0.000 -17.940  -0.000   0.000   0.000  -0.000 -17.981
 -0.000   0.000  -0.000 -17.939  -0.000  -0.000   0.000  -0.000
  0.000   0.000   0.000  -0.000 -17.940   0.000   0.000   0.000
-17.980   0.000   0.000  -0.000   0.000 -18.001   0.000   0.000
  0.000 -17.980  -0.000   0.000   0.000   0.000 -18.001  -0.000
  0.000  -0.000 -17.981  -0.000   0.000   0.000  -0.000 -18.003
 -0.000   0.000  -0.000 -17.980  -0.000  -0.000   0.000  -0.000
  0.000   0.000   0.000  -0.000 -17.981   0.000   0.000   0.000
 -0.000   0.000  -0.000  -0.000   0.000  -0.000   0.000  -0.000
 -0.000   0.000  -0.000  -0.000   0.000  -0.000   0.000  -0.000
 -0.000  -0.000   0.000   0.003   0.000  -0.000  -0.000   0.000
  0.003  -0.000  -0.000  -0.000   0.000   0.002  -0.000  -0.000
 -0.000   0.003  -0.000  -0.000   0.000  -0.000   0.002  -0.000
 -0.000  -0.000   0.000   0.003   0.000  -0.000  -0.000   0.000
  0.003  -0.000  -0.000  -0.000   0.000   0.002  -0.000  -0.000
 -0.000   0.003  -0.000  -0.000   0.000  -0.000   0.002  -0.000
 total augmentation occupancy for first ion, spin component:           1
  4.064  -0.009   0.010   0.000  -0.000  -2.013   0.010  -0.011  -0.000   0.000   0.023  -0.006   0.000   0.525  -0.005  -0.000
 -0.009   4.064  -0.000  -0.009   0.000   0.010  -2.013   0.000   0.010  -0.000  -0.000   0.000  -0.005  -0.005   0.525   0.001
  0.010  -0.000   2.524  -0.005   0.000  -0.011   0.000  -0.530   0.006  -0.000   0.000  -0.000  -0.001   0.002  -0.000   0.000
  0.000  -0.009  -0.005   4.064  -0.009  -0.000   0.010   0.006  -2.013   0.010   0.022  -0.005   0.525   0.000  -0.005  -0.073
 -0.000   0.000   0.000  -0.009   2.524   0.000  -0.000  -0.000   0.010  -0.530  -0.000   0.000  -0.002  -0.000   0.000   0.000
 -2.013   0.010  -0.011  -0.000   0.000   1.958  -0.012   0.012   0.000  -0.000  -0.022   0.006  -0.000  -0.502   0.005   0.000
  0.010  -2.013   0.000   0.010  -0.000  -0.012   1.958  -0.000  -0.012   0.000   0.000  -0.000   0.005   0.005  -0.502  -0.001
 -0.011   0.000  -0.530   0.006  -0.000   0.012  -0.000   0.528  -0.006  -0.000  -0.000   0.000   0.001  -0.002   0.000  -0.000
 -0.000   0.010   0.006  -2.013   0.010   0.000  -0.012  -0.006   1.958  -0.010  -0.022   0.006  -0.502  -0.000   0.005   0.084
  0.000  -0.000  -0.000   0.010  -0.530  -0.000   0.000  -0.000  -0.010   0.528   0.000  -0.000   0.001   0.000  -0.000  -0.000
  0.023  -0.000   0.000   0.022  -0.000  -0.022   0.000  -0.000  -0.022   0.000   2.819  -0.701   0.004   0.004  -0.000  -0.001
 -0.006   0.000  -0.000  -0.005   0.000   0.006  -0.000   0.000   0.006  -0.000  -0.701   0.216  -0.001  -0.001   0.000   0.000
  0.000  -0.005  -0.001   0.525  -0.002  -0.000   0.005   0.001  -0.502   0.001   0.004  -0.001   0.207   0.000  -0.002  -0.035
  0.525  -0.005   0.002   0.000  -0.000  -0.502   0.005  -0.002  -0.000   0.000   0.004  -0.001   0.000   0.207  -0.002  -0.000
 -0.005   0.525  -0.000  -0.005   0.000   0.005  -0.502   0.000   0.005  -0.000  -0.000   0.000  -0.002  -0.002   0.207   0.000
 -0.000   0.001   0.000  -0.073   0.000   0.000  -0.001  -0.000   0.084  -0.000  -0.001   0.000  -0.035  -0.000   0.000   0.007
 -0.073   0.001  -0.000  -0.000   0.000   0.084  -0.001   0.000   0.000  -0.000  -0.001   0.000  -0.000  -0.035   0.000   0.000
  0.001  -0.073   0.000   0.001  -0.000  -0.001   0.084  -0.000  -0.001   0.000   0.000  -0.000   0.000   0.000  -0.035  -0.000


------------------------ aborting loop because EDIFF is reached ----------------------------------------


    CHARGE:  cpu time    7.0452: real time    7.0397
    FORLOC:  cpu time    0.0228: real time    0.0228
    FORNL :  cpu time   12.6063: real time   12.5965
    STRESS:  cpu time   63.8350: real time   63.7848
    FORCOR:  cpu time    0.1153: real time    0.1156
    FORHAR:  cpu time    0.0346: real time    0.0346
    MIXING:  cpu time    0.0058: real time    0.0058
    OFIELD:  cpu time    0.0000: real time    0.0000

  FORCE on cell =-STRESS in cart. coord.  units (eV):
  Direction    XX          YY          ZZ          XY          YZ          ZX
  --------------------------------------------------------------------------------------
  Alpha Z   401.02641   401.02641   401.02641
  Ewald   -2785.39583 -2785.41490 -2785.41640    -1.91082    -0.00479    -1.75379
  Hartree  1339.78490  1339.77574  1339.77506    -0.75537    -0.00367    -0.69280
  E(xc)    -690.26767  -690.26766  -690.26766     0.00073    -0.00004     0.00066
  Local    -143.11602  -143.08846  -143.08631     2.57236     0.00879     2.36037
  n-local   206.54257   206.54231   206.54231    -0.02625     0.00021    -0.02405
  augment    50.04982    50.04985    50.04985     0.00199    -0.00021     0.00180
  Kinetic  1622.10104  1622.10156  1622.10164     0.07121     0.00038     0.06553
  Fock        0.00000     0.00000     0.00000     0.00000     0.00000     0.00000
  -------------------------------------------------------------------------------------
  Total       0.72521     0.72486     0.72488    -0.04616     0.00067    -0.04227
  in kB       2.13056     2.12955     2.12961    -0.13560     0.00198    -0.12417
  external pressure =        2.13 kB  Pullay stress =        0.00 kB


 VOLUME and BASIS-vectors are now :
 -----------------------------------------------------------------------------
  energy-cutoff  :      600.00
  volume of cell :      545.35
      direct lattice vectors                 reciprocal lattice vectors
    -0.000003400  6.484587040  6.484588800    -0.077105921  0.077105882  0.077105882
     6.484594480  0.000004540  6.484593240     0.077105793 -0.077105904  0.077105924
     6.484601580  6.484598560  0.000006340     0.077105730  0.077105860 -0.077105799

  length of vectors
     9.170592183  9.170600583  9.170609366     0.133551327  0.133551291  0.133551157


 FORCES acting on ions
    electron-ion (+dipol)            ewald-force                    non-local-force                 convergence-correction
 -----------------------------------------------------------------------------------------------
   -.806E-02 0.120E+01 0.121E+01   0.889E-02 -.124E+01 -.124E+01   -.755E-04 0.358E-03 0.266E-03   0.241E-07 -.146E-06 -.147E-06
   0.128E-03 -.598E+00 -.593E+00   -.221E-03 0.618E+00 0.613E+00   0.573E-04 -.155E-01 -.156E-01   0.393E-08 0.435E-06 0.445E-06
   -.378E+00 0.106E+00 -.215E+00   0.389E+00 -.120E+00 0.224E+00   -.843E-02 0.116E-01 -.713E-02   0.719E-07 -.467E-06 0.339E-06
   0.378E+00 -.220E+00 0.111E+00   -.389E+00 0.229E+00 -.126E+00   0.842E-02 -.705E-02 0.115E-01   -.958E-07 0.362E-06 -.391E-06
   -.378E+00 -.220E+00 0.111E+00   0.389E+00 0.229E+00 -.126E+00   -.843E-02 -.703E-02 0.115E-01   0.876E-07 0.314E-06 -.432E-06
   0.378E+00 0.106E+00 -.215E+00   -.389E+00 -.120E+00 0.224E+00   0.842E-02 0.116E-01 -.714E-02   -.110E-06 -.401E-06 0.340E-06
   0.214E-03 0.158E+00 0.163E+00   -.221E-03 -.160E+00 -.165E+00   -.114E-04 0.138E-02 0.129E-02   0.141E-07 0.256E-06 0.216E-06
   0.194E-03 -.110E+00 -.105E+00   -.221E-03 0.113E+00 0.107E+00   0.494E-05 -.226E-02 -.236E-02   0.414E-07 -.180E-06 -.219E-06
   0.924E-01 -.107E-01 -.155E-01   -.905E-01 0.109E-01 0.161E-01   -.161E-02 -.153E-03 -.311E-03   -.521E-07 -.397E-08 -.370E-08
   -.928E-01 -.109E-01 -.157E-01   0.909E-01 0.111E-01 0.164E-01   0.159E-02 -.155E-03 -.313E-03   0.565E-07 0.221E-08 0.284E-08
   -.631E-03 -.104E+00 -.108E+00   0.661E-03 0.102E+00 0.107E+00   -.934E-05 0.144E-02 0.129E-02   -.410E-08 0.529E-07 0.587E-07
   0.131E-02 0.275E+00 0.267E+00   -.132E-02 -.276E+00 -.268E+00   -.184E-04 0.115E-02 0.105E-02   -.591E-08 -.433E-07 -.422E-07
   -.631E-03 -.103E+00 -.109E+00   0.661E-03 0.101E+00 0.107E+00   -.935E-05 0.145E-02 0.128E-02   -.705E-08 0.516E-07 0.493E-07
   0.131E-02 0.272E+00 0.270E+00   -.132E-02 -.273E+00 -.271E+00   -.184E-04 0.121E-02 0.990E-03   -.106E-09 -.451E-07 -.315E-07
   0.639E+00 -.362E+00 -.367E+00   -.665E+00 0.388E+00 0.393E+00   0.103E-01 -.916E-02 -.932E-02   -.377E-07 -.204E-08 -.317E-09
   -.632E+00 -.361E+00 -.366E+00   0.659E+00 0.387E+00 0.392E+00   -.109E-01 -.975E-02 -.991E-02   0.361E-07 -.112E-07 -.776E-08
 -----------------------------------------------------------------------------------------------
   0.716E-03 0.209E-01 0.229E-01   -.999E-14 -.844E-14 0.345E-13   -.717E-03 -.209E-01 -.229E-01   0.227E-07 0.172E-06 0.176E-06
 
 
 POSITION                                       TOTAL-FORCE (eV/Angst)
 -----------------------------------------------------------------------------------
      6.48460      6.49167      0.00712         0.000752     -0.034706     -0.035062
      6.48460      9.72689      3.24234        -0.000036      0.004397      0.004042
      9.72690      6.48460      3.24234         0.002251     -0.003095      0.001769
      9.72690      9.72689      6.48464        -0.002287      0.002131     -0.003446
      3.24230      3.24230      0.00004         0.002251      0.002125     -0.003450
      3.24230      6.48459      3.24234        -0.002287     -0.003090      0.001776
      6.48460      3.24230      3.24234        -0.000019     -0.000141     -0.000497
      6.48460      6.48460      6.48463        -0.000022      0.000531      0.000175
      4.86344      4.86345      4.86341         0.000345      0.000025      0.000380
      4.86344      8.10574      8.10570        -0.000302      0.000026      0.000381
      8.10574      4.86345      8.10570         0.000021     -0.000297      0.000056
      8.10574      8.10574     11.34800        -0.000029      0.000136      0.000591
      8.10575      8.10575      4.86341         0.000021     -0.000299      0.000058
      8.10574     11.34804      8.10570        -0.000029      0.000235      0.000491
     11.34804      8.10575      8.10571        -0.016145      0.016286      0.016640
     11.34804     11.34804     11.34800         0.015514      0.015739      0.016096
 -----------------------------------------------------------------------------------
    total drift:                               -0.000001      0.000012      0.000014


--------------------------------------------------------------------------------------------------------



  FREE ENERGIE OF THE ION-ELECTRON SYSTEM (eV)
  ---------------------------------------------------
  free  energy   TOTEN  =       -43.91745958 eV

  energy  without entropy=      -43.91745958  energy(sigma->0) =      -43.91745958
 


--------------------------------------------------------------------------------------------------------


    POTLOK:  cpu time    0.3588: real time    0.3585


--------------------------------------------------------------------------------------------------------


     LOOP+:  cpu time 2776.6077: real time 2777.5615
    4ORBIT:  cpu time    0.0000: real time    0.0000

 total amount of memory used by VASP MPI-rank0   808940. kBytes
=======================================================================

   base      :      30000. kBytes
   nonl-proj :     592628. kBytes
   fftplans  :      24340. kBytes
   grid      :      29260. kBytes
   one-center:        248. kBytes
   wavefun   :     132464. kBytes
 
  
  
 General timing and accounting informations for this job:
 ========================================================
  
                  Total CPU time used (sec):     2803.396
                            User time (sec):     2787.870
                          System time (sec):       15.526
                         Elapsed time (sec):     2804.911
  
                   Maximum memory used (kb):     1037548.
                   Average memory used (kb):           0.
  
                          Minor page faults:      2082950
                          Major page faults:           97
                 Voluntary context switches:         1401
