<?xml version="1.0" encoding="ISO-8859-1"?>
<modeling>
 <generator>
  <i name="program" type="string">vasp </i>
  <i name="version" type="string">6.1.2  </i>
  <i name="subversion" type="string">22Jul20 (build Dec 07 2020 09:43:49) complex                          parallel </i>
  <i name="platform" type="string">LinuxIFC </i>
  <i name="date" type="string">2023 08 20 </i>
  <i name="time" type="string">11:38:53 </i>
 </generator>
 <incar>
  <i type="string" name="PREC"> Accurate</i>
  <i type="logical" name="ADDGRID"> T  </i>
  <i name="EDIFF">      0.00000001</i>
  <i name="ENCUT">    600.00000000</i>
  <i type="logical" name="LREAL"> F  </i>
  <i type="int" name="ISMEAR">     0</i>
  <i name="SIGMA">      0.01000000</i>
  <i type="logical" name="LWAVE"> F  </i>
  <i type="logical" name="LCHARG"> F  </i>
  <i type="string" name="GGA"> PS</i>
  <i name="EDIFF">      0.00000001</i>
 </incar>
 <structure name="primitive_cell" >
  <crystal>
   <varray name="basis" >
    <v>      -0.00000340       6.48458704       6.48458880 </v>
    <v>       6.48459448       0.00000454       6.48459324 </v>
    <v>       6.48460158       6.48459856       0.00000634 </v>
   </varray>
   <i name="volume">    545.35350099 </i>
   <varray name="rec_basis" >
    <v>      -0.07710592       0.07710588       0.07710588 </v>
    <v>       0.07710579      -0.07710590       0.07710592 </v>
    <v>       0.07710573       0.07710586      -0.07710580 </v>
   </varray>
  </crystal>
  <varray name="positions" >
   <v>       0.00109323       0.00000316       0.99999723 </v>
   <v>       0.50000278       0.00000316       0.99999723 </v>
   <v>       0.00000278       0.50000316       0.99999723 </v>
   <v>       0.50000278       0.50000316       0.99999723 </v>
   <v>       0.00000278       0.00000316       0.49999723 </v>
   <v>       0.50000278       0.00000316       0.49999723 </v>
   <v>       0.00000278       0.50000316       0.49999723 </v>
   <v>       0.50000278       0.50000316       0.49999723 </v>
   <v>       0.37499722       0.37499684       0.37500277 </v>
   <v>       0.87499722       0.37499684       0.37500277 </v>
   <v>       0.37499722       0.87499684       0.37500277 </v>
   <v>       0.87499722       0.87499684       0.37500277 </v>
   <v>       0.37499722       0.37499684       0.87500277 </v>
   <v>       0.87499722       0.37499684       0.87500277 </v>
   <v>       0.37499722       0.87499684       0.87500277 </v>
   <v>       0.87499722       0.87499684       0.87500277 </v>
  </varray>
 </structure>
 <varray name="primitive_index" >
  <v type="int" >        1 </v>
  <v type="int" >        2 </v>
  <v type="int" >        3 </v>
  <v type="int" >        4 </v>
  <v type="int" >        5 </v>
  <v type="int" >        6 </v>
  <v type="int" >        7 </v>
  <v type="int" >        8 </v>
  <v type="int" >        9 </v>
  <v type="int" >       10 </v>
  <v type="int" >       11 </v>
  <v type="int" >       12 </v>
  <v type="int" >       13 </v>
  <v type="int" >       14 </v>
  <v type="int" >       15 </v>
  <v type="int" >       16 </v>
 </varray>
 <kpoints>
  <generation param="Gamma">
   <v type="int" name="divisions">       6        6        6 </v>
   <v name="usershift">      0.00000000       0.00000000       0.00000000 </v>
   <v name="genvec1">      0.16666667       0.00000000       0.00000000 </v>
   <v name="genvec2">     -0.00000000       0.16666667      -0.00000000 </v>
   <v name="genvec3">      0.00000000       0.00000000       0.16666667 </v>
   <v name="shift">      0.00000000       0.00000000       0.00000000 </v>
  </generation>
  <varray name="kpointlist" >
   <v>       0.00000000       0.00000000       0.00000000 </v>
   <v>       0.16666667      -0.00000000       0.00000000 </v>
   <v>       0.00000000       0.16666667      -0.00000000 </v>
   <v>      -0.00000000       0.00000000       0.16666667 </v>
   <v>       0.16666667       0.16666667       0.16666667 </v>
   <v>       0.33333333      -0.00000000       0.00000000 </v>
   <v>       0.00000000       0.33333333      -0.00000000 </v>
   <v>      -0.00000000       0.00000000       0.33333333 </v>
   <v>       0.33333333       0.33333333       0.33333333 </v>
   <v>       0.50000000      -0.00000000       0.00000000 </v>
   <v>       0.00000000       0.50000000       0.00000000 </v>
   <v>      -0.00000000       0.00000000       0.50000000 </v>
   <v>       0.50000000       0.50000000       0.50000000 </v>
   <v>       0.16666667       0.16666667       0.00000000 </v>
   <v>      -0.00000000       0.16666667       0.16666667 </v>
   <v>       0.16666667       0.00000000       0.16666667 </v>
   <v>       0.33333333       0.16666667       0.00000000 </v>
   <v>       0.00000000       0.33333333       0.16666667 </v>
   <v>       0.16666667       0.00000000       0.33333333 </v>
   <v>       0.16666667       0.16666667      -0.16666667 </v>
   <v>       0.33333333       0.16666667       0.33333333 </v>
   <v>       0.16666667       0.33333333       0.00000000 </v>
   <v>       0.16666667      -0.16666667      -0.16666667 </v>
   <v>       0.33333333       0.33333333       0.16666667 </v>
   <v>      -0.00000000       0.16666667       0.33333333 </v>
   <v>      -0.16666667       0.16666667      -0.16666667 </v>
   <v>       0.16666667       0.33333333       0.33333333 </v>
   <v>       0.33333333      -0.00000000       0.16666667 </v>
   <v>       0.50000000       0.16666667       0.00000000 </v>
   <v>       0.00000000       0.50000000       0.16666667 </v>
   <v>       0.16666667       0.00000000       0.50000000 </v>
   <v>       0.16666667       0.16666667      -0.33333333 </v>
   <v>       0.50000000       0.33333333       0.50000000 </v>
   <v>       0.16666667       0.50000000       0.00000000 </v>
   <v>       0.33333333      -0.16666667      -0.16666667 </v>
   <v>       0.50000000       0.50000000       0.33333333 </v>
   <v>      -0.00000000       0.16666667       0.50000000 </v>
   <v>      -0.16666667       0.33333333      -0.16666667 </v>
   <v>       0.33333333       0.50000000       0.50000000 </v>
   <v>       0.50000000      -0.00000000       0.16666667 </v>
   <v>      -0.33333333       0.16666667      -0.00000000 </v>
   <v>      -0.00000000      -0.33333333       0.16666667 </v>
   <v>       0.16666667      -0.00000000      -0.33333333 </v>
   <v>       0.16666667       0.16666667       0.50000000 </v>
   <v>      -0.33333333       0.50000000      -0.33333333 </v>
   <v>       0.16666667      -0.33333333      -0.00000000 </v>
   <v>       0.50000000      -0.16666667      -0.16666667 </v>
   <v>      -0.33333333      -0.33333333       0.50000000 </v>
   <v>       0.00000000       0.16666667      -0.33333333 </v>
   <v>      -0.16666667       0.50000000      -0.16666667 </v>
   <v>       0.50000000      -0.33333333      -0.33333333 </v>
   <v>      -0.33333333       0.00000000       0.16666667 </v>
   <v>      -0.16666667       0.16666667       0.00000000 </v>
   <v>      -0.00000000      -0.16666667       0.16666667 </v>
   <v>       0.16666667      -0.00000000      -0.16666667 </v>
   <v>       0.16666667       0.16666667       0.33333333 </v>
   <v>      -0.16666667      -0.33333333      -0.16666667 </v>
   <v>      -0.33333333      -0.16666667      -0.16666667 </v>
   <v>       0.33333333       0.33333333       0.00000000 </v>
   <v>      -0.00000000       0.33333333       0.33333333 </v>
   <v>       0.33333333       0.00000000       0.33333333 </v>
   <v>       0.50000000       0.33333333       0.00000000 </v>
   <v>      -0.00000000       0.50000000       0.33333333 </v>
   <v>       0.33333333      -0.00000000       0.50000000 </v>
   <v>       0.33333333       0.33333333      -0.16666667 </v>
   <v>       0.50000000       0.16666667       0.50000000 </v>
   <v>       0.33333333       0.50000000       0.00000000 </v>
   <v>       0.16666667      -0.33333333      -0.33333333 </v>
   <v>       0.50000000       0.50000000       0.16666667 </v>
   <v>      -0.00000000       0.33333333       0.50000000 </v>
   <v>      -0.33333333       0.16666667      -0.33333333 </v>
   <v>       0.16666667       0.50000000       0.50000000 </v>
   <v>       0.50000000      -0.00000000       0.33333333 </v>
   <v>      -0.33333333       0.33333333       0.00000000 </v>
   <v>      -0.00000000      -0.33333333       0.33333333 </v>
   <v>       0.33333333      -0.00000000      -0.33333333 </v>
   <v>       0.33333333       0.33333333      -0.33333333 </v>
   <v>      -0.33333333       0.33333333      -0.33333333 </v>
   <v>       0.33333333      -0.33333333      -0.33333333 </v>
   <v>       0.50000000       0.50000000       0.00000000 </v>
   <v>      -0.00000000       0.50000000       0.50000000 </v>
   <v>       0.50000000      -0.00000000       0.50000000 </v>
   <v>       0.50000000       0.33333333       0.16666667 </v>
   <v>       0.16666667       0.50000000       0.33333333 </v>
   <v>       0.33333333       0.16666667       0.50000000 </v>
   <v>       0.33333333       0.16666667      -0.16666667 </v>
   <v>       0.50000000       0.16666667       0.33333333 </v>
   <v>       0.16666667      -0.33333333      -0.16666667 </v>
   <v>       0.16666667       0.33333333      -0.16666667 </v>
   <v>       0.16666667      -0.16666667      -0.33333333 </v>
   <v>       0.33333333       0.50000000       0.16666667 </v>
   <v>      -0.16666667       0.16666667      -0.33333333 </v>
   <v>      -0.33333333       0.16666667      -0.16666667 </v>
   <v>       0.16666667       0.33333333       0.50000000 </v>
   <v>      -0.33333333       0.33333333       0.16666667 </v>
   <v>       0.16666667      -0.33333333       0.33333333 </v>
   <v>       0.33333333       0.16666667      -0.33333333 </v>
   <v>      -0.33333333       0.33333333       0.50000000 </v>
   <v>       0.16666667       0.50000000      -0.16666667 </v>
   <v>       0.33333333      -0.16666667      -0.33333333 </v>
   <v>       0.50000000      -0.33333333       0.33333333 </v>
   <v>      -0.16666667       0.16666667       0.50000000 </v>
   <v>      -0.33333333       0.33333333      -0.16666667 </v>
   <v>       0.33333333       0.50000000      -0.33333333 </v>
   <v>       0.50000000      -0.16666667       0.16666667 </v>
   <v>      -0.16666667      -0.33333333       0.33333333 </v>
   <v>      -0.33333333       0.50000000       0.16666667 </v>
   <v>       0.16666667      -0.33333333       0.50000000 </v>
   <v>       0.50000000       0.16666667      -0.33333333 </v>
   <v>       0.50000000       0.33333333      -0.16666667 </v>
   <v>      -0.33333333       0.16666667       0.50000000 </v>
   <v>       0.16666667       0.50000000      -0.33333333 </v>
  </varray>
  <varray name="weights" >
   <v>       0.00462963 </v>
   <v>       0.00925926 </v>
   <v>       0.00925926 </v>
   <v>       0.00925926 </v>
   <v>       0.00925926 </v>
   <v>       0.00925926 </v>
   <v>       0.00925926 </v>
   <v>       0.00925926 </v>
   <v>       0.00925926 </v>
   <v>       0.00462963 </v>
   <v>       0.00462963 </v>
   <v>       0.00462963 </v>
   <v>       0.00462963 </v>
   <v>       0.00925926 </v>
   <v>       0.00925926 </v>
   <v>       0.00925926 </v>
   <v>       0.00925926 </v>
   <v>       0.00925926 </v>
   <v>       0.00925926 </v>
   <v>       0.00925926 </v>
   <v>       0.00925926 </v>
   <v>       0.00925926 </v>
   <v>       0.00925926 </v>
   <v>       0.00925926 </v>
   <v>       0.00925926 </v>
   <v>       0.00925926 </v>
   <v>       0.00925926 </v>
   <v>       0.00925926 </v>
   <v>       0.00925926 </v>
   <v>       0.00925926 </v>
   <v>       0.00925926 </v>
   <v>       0.00925926 </v>
   <v>       0.00925926 </v>
   <v>       0.00925926 </v>
   <v>       0.00925926 </v>
   <v>       0.00925926 </v>
   <v>       0.00925926 </v>
   <v>       0.00925926 </v>
   <v>       0.00925926 </v>
   <v>       0.00925926 </v>
   <v>       0.00925926 </v>
   <v>       0.00925926 </v>
   <v>       0.00925926 </v>
   <v>       0.00925926 </v>
   <v>       0.00925926 </v>
   <v>       0.00925926 </v>
   <v>       0.00925926 </v>
   <v>       0.00925926 </v>
   <v>       0.00925926 </v>
   <v>       0.00925926 </v>
   <v>       0.00925926 </v>
   <v>       0.00925926 </v>
   <v>       0.00925926 </v>
   <v>       0.00925926 </v>
   <v>       0.00925926 </v>
   <v>       0.00925926 </v>
   <v>       0.00925926 </v>
   <v>       0.00925926 </v>
   <v>       0.00925926 </v>
   <v>       0.00925926 </v>
   <v>       0.00925926 </v>
   <v>       0.00925926 </v>
   <v>       0.00925926 </v>
   <v>       0.00925926 </v>
   <v>       0.00925926 </v>
   <v>       0.00925926 </v>
   <v>       0.00925926 </v>
   <v>       0.00925926 </v>
   <v>       0.00925926 </v>
   <v>       0.00925926 </v>
   <v>       0.00925926 </v>
   <v>       0.00925926 </v>
   <v>       0.00925926 </v>
   <v>       0.00925926 </v>
   <v>       0.00925926 </v>
   <v>       0.00925926 </v>
   <v>       0.00925926 </v>
   <v>       0.00925926 </v>
   <v>       0.00925926 </v>
   <v>       0.00462963 </v>
   <v>       0.00462963 </v>
   <v>       0.00462963 </v>
   <v>       0.00925926 </v>
   <v>       0.00925926 </v>
   <v>       0.00925926 </v>
   <v>       0.00925926 </v>
   <v>       0.00925926 </v>
   <v>       0.00925926 </v>
   <v>       0.00925926 </v>
   <v>       0.00925926 </v>
   <v>       0.00925926 </v>
   <v>       0.00925926 </v>
   <v>       0.00925926 </v>
   <v>       0.00925926 </v>
   <v>       0.00925926 </v>
   <v>       0.00925926 </v>
   <v>       0.00925926 </v>
   <v>       0.00925926 </v>
   <v>       0.00925926 </v>
   <v>       0.00925926 </v>
   <v>       0.00925926 </v>
   <v>       0.00925926 </v>
   <v>       0.00925926 </v>
   <v>       0.00925926 </v>
   <v>       0.00925926 </v>
   <v>       0.00925926 </v>
   <v>       0.00925926 </v>
   <v>       0.00925926 </v>
   <v>       0.00925926 </v>
   <v>       0.00925926 </v>
   <v>       0.00925926 </v>
   <v>       0.00925926 </v>
  </varray>
 </kpoints>
 <parameters>
  <separator name="general" >
   <i type="string" name="SYSTEM">unknown system</i>
   <i type="logical" name="LCOMPAT"> F  </i>
  </separator>
  <separator name="electronic" >
   <i type="string" name="PREC">accura</i>
   <i name="ENMAX">    600.00000000</i>
   <i name="ENAUG">    456.10600000</i>
   <i name="EDIFF">      0.00000001</i>
   <i type="int" name="IALGO">    38</i>
   <i type="int" name="IWAVPR">    10</i>
   <i type="int" name="NBANDS">   112</i>
   <i type="int" name="NBANDSLOW">    -1</i>
   <i type="int" name="NBANDSHIGH">    -1</i>
   <i name="NELECT">    144.00000000</i>
   <i type="int" name="TURBO">     0</i>
   <i type="int" name="IRESTART">     0</i>
   <i type="int" name="NREBOOT">     0</i>
   <i type="int" name="NMIN">     0</i>
   <i name="EREF">      0.00000000</i>
   <separator name="electronic smearing" >
    <i type="int" name="ISMEAR">     0</i>
    <i name="SIGMA">      0.01000000</i>
    <i name="KSPACING">      0.50000000</i>
    <i type="logical" name="KGAMMA"> T  </i>
    <i type="logical" name="KBLOWUP"> T  </i>
   </separator>
   <separator name="electronic projectors" >
    <i type="logical" name="LREAL"> F  </i>
    <v name="ROPT">      0.00000000      0.00000000</v>
    <i type="int" name="LMAXPAW">  -100</i>
    <i type="int" name="LMAXMIX">     2</i>
    <i type="logical" name="NLSPLINE"> F  </i>
   </separator>
   <separator name="electronic startup" >
    <i type="int" name="ISTART">     0</i>
    <i type="int" name="ICHARG">     2</i>
    <i type="int" name="INIWAV">     1</i>
   </separator>
   <separator name="electronic spin" >
    <i type="int" name="ISPIN">     1</i>
    <i type="logical" name="LNONCOLLINEAR"> F  </i>
    <v name="MAGMOM">      1.00000000      1.00000000      1.00000000      1.00000000      1.00000000      1.00000000      1.00000000      1.00000000      1.00000000      1.00000000      1.00000000      1.00000000      1.00000000      1.00000000      1.00000000      1.00000000</v>
    <i name="NUPDOWN">     -1.00000000</i>
    <i type="logical" name="LSORBIT"> F  </i>
    <v name="SAXIS">      0.00000000      0.00000000      1.00000000</v>
    <i type="logical" name="LSPIRAL"> F  </i>
    <v name="QSPIRAL">      0.00000000      0.00000000      0.00000000</v>
    <i type="logical" name="LZEROZ"> F  </i>
   </separator>
   <separator name="electronic exchange-correlation" >
    <i type="logical" name="LASPH"> F  </i>
    <i type="logical" name="LMETAGGA"> F  </i>
   </separator>
   <separator name="electronic convergence" >
    <i type="int" name="NELM">    60</i>
    <i type="int" name="NELMDL">     0</i>
    <i type="int" name="NELMIN">     2</i>
    <i name="ENINI">    600.00000000</i>
    <separator name="electronic convergence detail" >
     <i type="logical" name="LDIAG"> T  </i>
     <i type="logical" name="LSUBROT"> F  </i>
     <i name="WEIMIN">      0.00000000</i>
     <i name="EBREAK">      0.00000000</i>
     <i name="DEPER">      0.30000000</i>
     <i type="int" name="NRMM">     4</i>
     <i name="TIME">      0.40000000</i>
    </separator>
   </separator>
   <separator name="electronic mixer" >
    <i name="AMIX">      0.40000000</i>
    <i name="BMIX">      1.00000000</i>
    <i name="AMIN">      0.10000000</i>
    <i name="AMIX_MAG">      1.60000000</i>
    <i name="BMIX_MAG">      1.00000000</i>
    <separator name="electronic mixer details" >
     <i type="int" name="IMIX">     4</i>
     <i type="logical" name="MIXFIRST"> F  </i>
     <i type="int" name="MAXMIX">   -45</i>
     <i name="WC">    100.00000000</i>
     <i type="int" name="INIMIX">     1</i>
     <i type="int" name="MIXPRE">     1</i>
     <i type="int" name="MREMOVE">     5</i>
    </separator>
   </separator>
   <separator name="electronic dipolcorrection" >
    <i type="logical" name="LDIPOL"> F  </i>
    <i type="logical" name="LMONO"> F  </i>
    <i type="int" name="IDIPOL">     0</i>
    <i name="EPSILON">      1.00000000</i>
    <v name="DIPOL">   -100.00000000   -100.00000000   -100.00000000</v>
    <i name="EFIELD">      0.00000000</i>
   </separator>
  </separator>
  <separator name="grids" >
   <i type="int" name="NGX">    80</i>
   <i type="int" name="NGY">    80</i>
   <i type="int" name="NGZ">    80</i>
   <i type="int" name="NGXF">   160</i>
   <i type="int" name="NGYF">   160</i>
   <i type="int" name="NGZF">   160</i>
   <i type="logical" name="ADDGRID"> T  </i>
  </separator>
  <separator name="ionic" >
   <i type="int" name="NSW">     0</i>
   <i type="int" name="IBRION">    -1</i>
   <i type="int" name="MDALGO">     0</i>
   <i type="int" name="ISIF">     2</i>
   <i name="PSTRESS">      0.00000000</i>
   <i name="EDIFFG">      0.00000010</i>
   <i type="int" name="NFREE">     0</i>
   <i name="POTIM">      0.50000000</i>
   <i name="SMASS">     -3.00000000</i>
   <i name="SCALEE">      1.00000000</i>
  </separator>
  <separator name="ionic md" >
   <i name="TEBEG">      0.00010000</i>
   <i name="TEEND">      0.00010000</i>
   <i type="int" name="NBLOCK">     1</i>
   <i type="int" name="KBLOCK">     1</i>
   <i type="int" name="NPACO">   256</i>
   <i name="APACO">     16.00000000</i>
  </separator>
  <separator name="symmetry" >
   <i type="int" name="ISYM">     2</i>
   <i name="SYMPREC">      0.00001000</i>
  </separator>
  <separator name="dos" >
   <i type="int" name="LORBIT">     0</i>
   <v name="RWIGS">     -1.00000000     -1.00000000</v>
   <i type="int" name="NEDOS">   301</i>
   <i name="EMIN">     10.00000000</i>
   <i name="EMAX">    -10.00000000</i>
   <i name="EFERMI">      0.00000000</i>
  </separator>
  <separator name="writing" >
   <i type="int" name="NWRITE">     2</i>
   <i type="logical" name="LWAVE"> F  </i>
   <i type="logical" name="LDOWNSAMPLE"> F  </i>
   <i type="logical" name="LCHARG"> F  </i>
   <i type="logical" name="LPARD"> F  </i>
   <i type="logical" name="LVTOT"> F  </i>
   <i type="logical" name="LVHAR"> F  </i>
   <i type="logical" name="LELF"> F  </i>
   <i type="logical" name="LOPTICS"> F  </i>
   <v name="STM">      0.00000000      0.00000000      0.00000000      0.00000000      0.00000000      0.00000000      0.00000000</v>
  </separator>
  <separator name="performance" >
   <i type="int" name="NPAR">    28</i>
   <i type="int" name="NSIM">     4</i>
   <i type="int" name="NBLK">    -1</i>
   <i type="logical" name="LPLANE"> T  </i>
   <i type="logical" name="LSCALAPACK"> T  </i>
   <i type="logical" name="LSCAAWARE"> F  </i>
   <i type="logical" name="LSCALU"> F  </i>
   <i type="logical" name="LASYNC"> F  </i>
   <i type="logical" name="LORBITALREAL"> F  </i>
  </separator>
  <separator name="miscellaneous" >
   <i type="int" name="IDIOT">     3</i>
   <i type="int" name="PHON_NSTRUCT">    -1</i>
   <i type="logical" name="LMUSIC"> F  </i>
   <v name="POMASS">    112.41100000    127.60000000</v>
   <v name="DARWINR">      0.00000000      0.00000000</v>
   <v name="DARWINV">      1.00000000      1.00000000</v>
   <i type="logical" name="LCORR"> T  </i>
  </separator>
  <i type="logical" name="GGA_COMPAT"> T  </i>
  <i type="logical" name="LBERRY"> F  </i>
  <i type="int" name="ICORELEVEL">     0</i>
  <i type="logical" name="LDAU"> F  </i>
  <i type="int" name="I_CONSTRAINED_M">     0</i>
  <separator name="electronic exchange-correlation" >
   <i type="string" name="GGA">PS</i>
   <i type="int" name="VOSKOWN">     0</i>
   <i type="logical" name="LHFCALC"> F  </i>
   <i type="string" name="PRECFOCK"></i>
   <i type="logical" name="LSYMGRAD"> F  </i>
   <i type="logical" name="LHFONE"> F  </i>
   <i type="logical" name="LRHFCALC"> F  </i>
   <i type="logical" name="LTHOMAS"> F  </i>
   <i type="logical" name="LMODELHF"> F  </i>
   <i type="logical" name="LFOCKACE"> F  </i>
   <i name="ENCUT4O">     -1.00000000</i>
   <i type="int" name="EXXOEP">     0</i>
   <i type="int" name="FOURORBIT">     0</i>
   <i name="AEXX">      0.00000000</i>
   <i name="HFALPHA">      0.00000000</i>
   <i name="MCALPHA">      0.00000000</i>
   <i name="ALDAX">      1.00000000</i>
   <i name="AGGAX">      1.00000000</i>
   <i name="ALDAC">      1.00000000</i>
   <i name="AGGAC">      1.00000000</i>
   <i type="int" name="NKREDX">     1</i>
   <i type="int" name="NKREDY">     1</i>
   <i type="int" name="NKREDZ">     1</i>
   <i type="logical" name="SHIFTRED"> F  </i>
   <i type="logical" name="ODDONLY"> F  </i>
   <i type="logical" name="EVENONLY"> F  </i>
   <i type="int" name="LMAXFOCK">     0</i>
   <i type="int" name="NMAXFOCKAE">     0</i>
   <i type="logical" name="LFOCKAEDFT"> F  </i>
   <i name="HFSCREEN">      0.00000000</i>
   <i name="HFSCREENC">      0.00000000</i>
   <i type="int" name="NBANDSGWLOW">     0</i>
  </separator>
  <separator name="vdW DFT" >
   <i type="logical" name="LUSE_VDW"> F  </i>
   <i name="Zab_VDW">     -0.84910000</i>
   <i name="PARAM1">      0.12340000</i>
   <i name="PARAM2">      1.00000000</i>
   <i name="PARAM3">      0.00000000</i>
  </separator>
  <separator name="model GW" >
   <i type="int" name="MODEL_GW">     0</i>
   <i name="MODEL_EPS0">     20.45075629</i>
   <i name="MODEL_ALPHA">      1.00000000</i>
  </separator>
  <separator name="linear response parameters" >
   <i type="logical" name="LEPSILON"> F  </i>
   <i type="logical" name="LRPA"> F  </i>
   <i type="logical" name="LNABLA"> F  </i>
   <i type="logical" name="LVEL"> F  </i>
   <i type="int" name="KINTER">     0</i>
   <i name="CSHIFT">      0.10000000</i>
   <i name="OMEGAMAX">     -1.00000000</i>
   <i name="DEG_THRESHOLD">      0.00200000</i>
   <i name="RTIME">     -0.10000000</i>
   <i name="WPLASMAI">      0.00000000</i>
   <v name="DFIELD">      0.00000000      0.00000000      0.00000000</v>
   <v name="WPLASMA">      0.00000000      0.00000000      0.00000000      0.00000000      0.00000000      0.00000000      0.00000000      0.00000000      0.00000000</v>
  </separator>
  <separator name="orbital magnetization" >
   <i type="logical" name="NUCIND"> F  </i>
   <v name="MAGPOS">      0.00000000      0.00000000      0.00000000</v>
   <i type="logical" name="LNICSALL"> T  </i>
   <i type="logical" name="ORBITALMAG"> F  </i>
   <i type="logical" name="LMAGBLOCH"> F  </i>
   <i type="logical" name="LCHIMAG"> F  </i>
   <i type="logical" name="LGAUGE"> T  </i>
   <i type="int" name="MAGATOM">     0</i>
   <v name="MAGDIPOL">      0.00000000      0.00000000      0.00000000</v>
   <v name="AVECCONST">      0.00000000      0.00000000      0.00000000</v>
  </separator>
  <separator name="response functions" >
   <i type="logical" name="LFINITE_TEMPERATURE"> F  </i>
   <i type="logical" name="LADDER"> F  </i>
   <i type="logical" name="LRPAFORCE"> F  </i>
   <i type="logical" name="LFXC"> F  </i>
   <i type="logical" name="LHARTREE"> T  </i>
   <i type="int" name="IBSE">     0</i>
   <v type="int" name="KPOINT">    -1     0     0     0</v>
   <i type="logical" name="LTCTC"> F  </i>
   <i type="logical" name="LTCTE"> F  </i>
   <i type="logical" name="LTETE"> F  </i>
   <i type="logical" name="LTRIPLET"> F  </i>
   <i type="logical" name="LFXCEPS"> F  </i>
   <i type="logical" name="LFXHEG"> F  </i>
   <i type="int" name="NATURALO">     2</i>
   <i type="logical" name="LHOLEGF"> F  </i>
   <i type="logical" name="L2ORDER"> F  </i>
   <i type="logical" name="LDMP1"> F  </i>
   <i type="logical" name="LMP2LT"> F  </i>
   <i type="logical" name="LSMP2LT"> F  </i>
   <i type="logical" name="LGWLF"> F  </i>
   <i name="ENCUTGW">     -2.00000000</i>
   <i name="ENCUTGWSOFT">     -2.00000000</i>
   <i name="ENCUTLF">     -1.00000000</i>
   <i type="logical" name="LESF_SPLINES"> F  </i>
   <i type="int" name="LMAXMP2">    -1</i>
   <i name="SCISSOR">      0.00000000</i>
   <i type="int" name="NOMEGA">     0</i>
   <i type="int" name="NOMEGAR">     0</i>
   <i type="int" name="NBANDSGW">    -1</i>
   <i type="int" name="NBANDSO">    -1</i>
   <i type="int" name="NBANDSV">    -1</i>
   <i type="int" name="NELM">     1</i>
   <i type="int" name="NELMHF">     1</i>
   <i type="int" name="DIM">     3</i>
   <i type="int" name="IESPILON">     4</i>
   <i type="int" name="ANTIRES">     0</i>
   <i name="OMEGAMAX">    -30.00000000</i>
   <i name="OMEGAMIN">    -30.00000000</i>
   <i name="OMEGATL">   -200.00000000</i>
   <i type="int" name="OMEGAGRID">     0</i>
   <i name="CSHIFT">     -0.10000000</i>
   <i type="logical" name="LSELFENERGY"> F  </i>
   <i type="logical" name="LSPECTRAL"> F  </i>
   <i type="logical" name="LSPECTRALGW"> F  </i>
   <i type="logical" name="LSINGLES"> F  </i>
   <i type="logical" name="LFERMIGW"> F  </i>
   <i type="logical" name="ODDONLYGW"> F  </i>
   <i type="logical" name="EVENONLYGW"> F  </i>
   <i type="int" name="NKREDLFX">     1</i>
   <i type="int" name="NKREDLFY">     1</i>
   <i type="int" name="NKREDLFZ">     1</i>
   <i type="int" name="MAXMEM">  2800</i>
   <i type="int" name="TELESCOPE">     0</i>
   <i type="int" name="NTAUPAR">    -1</i>
   <i type="int" name="NOMEGAPAR">    -1</i>
   <i name="LAMBDA">      1.00000000</i>
  </separator>
  <separator name="External order field" >
   <i name="OFIELD_KAPPA">      0.00000000</i>
   <v name="OFIELD_K">      0.00000000      0.00000000      0.00000000</v>
   <i name="OFIELD_Q6_NEAR">      0.00000000</i>
   <i name="OFIELD_Q6_FAR">      0.00000000</i>
   <i name="OFIELD_A">      0.00000000</i>
  </separator>
 </parameters>
 <atominfo>
  <atoms>      16 </atoms>
  <types>       2 </types>
  <array name="atoms" >
   <dimension dim="1">ion</dimension>
   <field type="string">element</field>
   <field type="int">atomtype</field>
   <set>
    <rc><c>Cd</c><c>   1</c></rc>
    <rc><c>Cd</c><c>   1</c></rc>
    <rc><c>Cd</c><c>   1</c></rc>
    <rc><c>Cd</c><c>   1</c></rc>
    <rc><c>Cd</c><c>   1</c></rc>
    <rc><c>Cd</c><c>   1</c></rc>
    <rc><c>Cd</c><c>   1</c></rc>
    <rc><c>Cd</c><c>   1</c></rc>
    <rc><c>Te</c><c>   2</c></rc>
    <rc><c>Te</c><c>   2</c></rc>
    <rc><c>Te</c><c>   2</c></rc>
    <rc><c>Te</c><c>   2</c></rc>
    <rc><c>Te</c><c>   2</c></rc>
    <rc><c>Te</c><c>   2</c></rc>
    <rc><c>Te</c><c>   2</c></rc>
    <rc><c>Te</c><c>   2</c></rc>
   </set>
  </array>
  <array name="atomtypes" >
   <dimension dim="1">type</dimension>
   <field type="int">atomspertype</field>
   <field type="string">element</field>
   <field>mass</field>
   <field>valence</field>
   <field type="string">pseudopotential</field>
   <set>
    <rc><c>   8</c><c>Cd</c><c>    112.41100000</c><c>     12.00000000</c><c>  PAW_PBE Cd 06Sep2000                  </c></rc>
    <rc><c>   8</c><c>Te</c><c>    127.60000000</c><c>      6.00000000</c><c>  PAW_PBE Te 08Apr2002                  </c></rc>
   </set>
  </array>
 </atominfo>
 <structure name="initialpos" >
  <crystal>
   <varray name="basis" >
    <v>      -0.00000340       6.48458704       6.48458880 </v>
    <v>       6.48459448       0.00000454       6.48459324 </v>
    <v>       6.48460158       6.48459856       0.00000634 </v>
   </varray>
   <i name="volume">    545.35350099 </i>
   <varray name="rec_basis" >
    <v>      -0.07710592       0.07710588       0.07710588 </v>
    <v>       0.07710579      -0.07710590       0.07710592 </v>
    <v>       0.07710573       0.07710586      -0.07710580 </v>
   </varray>
  </crystal>
  <varray name="positions" >
   <v>       0.00109323       0.00000316       0.99999723 </v>
   <v>       0.50000278       0.00000316       0.99999723 </v>
   <v>       0.00000278       0.50000316       0.99999723 </v>
   <v>       0.50000278       0.50000316       0.99999723 </v>
   <v>       0.00000278       0.00000316       0.49999723 </v>
   <v>       0.50000278       0.00000316       0.49999723 </v>
   <v>       0.00000278       0.50000316       0.49999723 </v>
   <v>       0.50000278       0.50000316       0.49999723 </v>
   <v>       0.37499722       0.37499684       0.37500277 </v>
   <v>       0.87499722       0.37499684       0.37500277 </v>
   <v>       0.37499722       0.87499684       0.37500277 </v>
   <v>       0.87499722       0.87499684       0.37500277 </v>
   <v>       0.37499722       0.37499684       0.87500277 </v>
   <v>       0.87499722       0.37499684       0.87500277 </v>
   <v>       0.37499722       0.87499684       0.87500277 </v>
   <v>       0.87499722       0.87499684       0.87500277 </v>
  </varray>
 </structure>
 <calculation>
  <scstep>
   <time name="dav">  116.76  116.69</time>
   <time name="total">  117.33  117.26</time>
   <energy>
    <i name="alphaZ">    401.02640649 </i>
    <i name="ewald">  -8356.20317956 </i>
    <i name="hartreedc">  -4082.33259404 </i>
    <i name="XCdc">   -165.17682600 </i>
    <i name="pawpsdc">  11219.64626070 </i>
    <i name="pawaedc"> -10652.48958799 </i>
    <i name="eentropy">     -0.00026027 </i>
    <i name="bandstr">    452.92639943 </i>
    <i name="atom">  12129.66290356 </i>
    <i name="e_fr_energy">    947.05952233 </i>
    <i name="e_wo_entrp">    947.05978260 </i>
    <i name="e_0_energy">    947.05965246 </i>
   </energy>
  </scstep>
  <scstep>
   <time name="dav">  128.09  128.00</time>
   <time name="total">  128.10  128.00</time>
   <energy>
    <i name="e_fr_energy">      0.65394043 </i>
    <i name="e_wo_entrp">      0.65394043 </i>
    <i name="e_0_energy">      0.65394043 </i>
   </energy>
  </scstep>
  <scstep>
   <time name="dav">  129.18  129.08</time>
   <time name="total">  129.18  129.08</time>
   <energy>
    <i name="e_fr_energy">    -45.36393173 </i>
    <i name="e_wo_entrp">    -45.36393173 </i>
    <i name="e_0_energy">    -45.36393173 </i>
   </energy>
  </scstep>
  <scstep>
   <time name="dav">  123.81  123.72</time>
   <time name="total">  123.81  123.72</time>
   <energy>
    <i name="e_fr_energy">    -45.95514280 </i>
    <i name="e_wo_entrp">    -45.95514280 </i>
    <i name="e_0_energy">    -45.95514280 </i>
   </energy>
  </scstep>
  <scstep>
   <time name="dav">  128.12  128.03</time>
   <time name="total">  137.74  137.64</time>
   <energy>
    <i name="e_fr_energy">    -45.96161193 </i>
    <i name="e_wo_entrp">    -45.96161193 </i>
    <i name="e_0_energy">    -45.96161193 </i>
   </energy>
  </scstep>
  <scstep>
   <time name="dav">  101.16  101.08</time>
   <time name="total">  108.18  108.10</time>
   <energy>
    <i name="e_fr_energy">    -44.05165612 </i>
    <i name="e_wo_entrp">    -44.05165612 </i>
    <i name="e_0_energy">    -44.05165612 </i>
   </energy>
  </scstep>
  <scstep>
   <time name="dav">  117.60  117.51</time>
   <time name="total">  127.28  127.18</time>
   <energy>
    <i name="e_fr_energy">    -43.92474540 </i>
    <i name="e_wo_entrp">    -43.92474540 </i>
    <i name="e_0_energy">    -43.92474540 </i>
   </energy>
  </scstep>
  <scstep>
   <time name="dav">   98.82   98.75</time>
   <time name="total">  105.89  105.82</time>
   <energy>
    <i name="e_fr_energy">    -43.91743050 </i>
    <i name="e_wo_entrp">    -43.91743050 </i>
    <i name="e_0_energy">    -43.91743050 </i>
   </energy>
  </scstep>
  <scstep>
   <time name="dav">  122.05  121.96</time>
   <time name="total">  131.72  131.62</time>
   <energy>
    <i name="e_fr_energy">    -43.91763830 </i>
    <i name="e_wo_entrp">    -43.91763830 </i>
    <i name="e_0_energy">    -43.91763830 </i>
   </energy>
  </scstep>
  <scstep>
   <time name="dav">  100.60  100.52</time>
   <time name="total">  107.62  107.54</time>
   <energy>
    <i name="e_fr_energy">    -43.91731519 </i>
    <i name="e_wo_entrp">    -43.91731519 </i>
    <i name="e_0_energy">    -43.91731519 </i>
   </energy>
  </scstep>
  <scstep>
   <time name="dav">  118.61  118.52</time>
   <time name="total">  128.10  128.00</time>
   <energy>
    <i name="e_fr_energy">    -43.91746927 </i>
    <i name="e_wo_entrp">    -43.91746927 </i>
    <i name="e_0_energy">    -43.91746927 </i>
   </energy>
  </scstep>
  <scstep>
   <time name="dav">  103.46  103.38</time>
   <time name="total">  110.57  110.49</time>
   <energy>
    <i name="e_fr_energy">    -43.91745532 </i>
    <i name="e_wo_entrp">    -43.91745532 </i>
    <i name="e_0_energy">    -43.91745532 </i>
   </energy>
  </scstep>
  <scstep>
   <time name="dav">  116.89  116.79</time>
   <time name="total">  126.30  126.21</time>
   <energy>
    <i name="e_fr_energy">    -43.91746047 </i>
    <i name="e_wo_entrp">    -43.91746047 </i>
    <i name="e_0_energy">    -43.91746047 </i>
   </energy>
  </scstep>
  <scstep>
   <time name="dav">   98.56   98.48</time>
   <time name="total">  105.68  105.60</time>
   <energy>
    <i name="e_fr_energy">    -43.91745833 </i>
    <i name="e_wo_entrp">    -43.91745833 </i>
    <i name="e_0_energy">    -43.91745833 </i>
   </energy>
  </scstep>
  <scstep>
   <time name="dav">  122.82  122.73</time>
   <time name="total">  132.25  132.15</time>
   <energy>
    <i name="e_fr_energy">    -43.91745857 </i>
    <i name="e_wo_entrp">    -43.91745857 </i>
    <i name="e_0_energy">    -43.91745857 </i>
   </energy>
  </scstep>
  <scstep>
   <time name="dav">   99.56   99.48</time>
   <time name="total">  106.65  106.57</time>
   <energy>
    <i name="e_fr_energy">    -43.91745884 </i>
    <i name="e_wo_entrp">    -43.91745884 </i>
    <i name="e_0_energy">    -43.91745884 </i>
   </energy>
  </scstep>
  <scstep>
   <time name="dav">  114.50  114.41</time>
   <time name="total">  123.92  123.83</time>
   <energy>
    <i name="e_fr_energy">    -43.91745928 </i>
    <i name="e_wo_entrp">    -43.91745928 </i>
    <i name="e_0_energy">    -43.91745928 </i>
   </energy>
  </scstep>
  <scstep>
   <time name="dav">   89.42   89.35</time>
   <time name="total">   96.52   96.45</time>
   <energy>
    <i name="e_fr_energy">    -43.91745937 </i>
    <i name="e_wo_entrp">    -43.91745937 </i>
    <i name="e_0_energy">    -43.91745937 </i>
   </energy>
  </scstep>
  <scstep>
   <time name="dav">  109.65  109.57</time>
   <time name="total">  117.72  117.64</time>
   <energy>
    <i name="e_fr_energy">    -43.91745948 </i>
    <i name="e_wo_entrp">    -43.91745948 </i>
    <i name="e_0_energy">    -43.91745948 </i>
   </energy>
  </scstep>
  <scstep>
   <time name="dav">   99.65   99.57</time>
   <time name="total">  106.82  106.74</time>
   <energy>
    <i name="e_fr_energy">    -43.91745954 </i>
    <i name="e_wo_entrp">    -43.91745954 </i>
    <i name="e_0_energy">    -43.91745954 </i>
   </energy>
  </scstep>
  <scstep>
   <time name="dav">   80.10   80.04</time>
   <time name="total">   88.23   88.16</time>
   <energy>
    <i name="e_fr_energy">    -43.91745952 </i>
    <i name="e_wo_entrp">    -43.91745952 </i>
    <i name="e_0_energy">    -43.91745952 </i>
   </energy>
  </scstep>
  <scstep>
   <time name="dav">   69.33   69.28</time>
   <time name="total">   76.46   76.40</time>
   <energy>
    <i name="e_fr_energy">    -43.91745954 </i>
    <i name="e_wo_entrp">    -43.91745954 </i>
    <i name="e_0_energy">    -43.91745954 </i>
   </energy>
  </scstep>
  <scstep>
   <time name="dav">   77.92   77.86</time>
   <time name="total">   85.61   85.55</time>
   <energy>
    <i name="e_fr_energy">    -43.91745957 </i>
    <i name="e_wo_entrp">    -43.91745957 </i>
    <i name="e_0_energy">    -43.91745957 </i>
   </energy>
  </scstep>
  <scstep>
   <time name="dav">   70.02   69.97</time>
   <time name="total">   70.45   70.40</time>
   <energy>
    <i name="alphaZ">    401.02640649 </i>
    <i name="ewald">  -8356.20317956 </i>
    <i name="hartreedc">  -4019.33560172 </i>
    <i name="XCdc">   -165.52638382 </i>
    <i name="pawpsdc">  13729.14895824 </i>
    <i name="pawaedc"> -13159.40127168 </i>
    <i name="eentropy">     -0.00000000 </i>
    <i name="bandstr">   -603.28929107 </i>
    <i name="atom">  12129.66290356 </i>
    <i name="e_fr_energy">    -43.91745958 </i>
    <i name="e_wo_entrp">    -43.91745958 </i>
    <i name="e_0_energy">    -43.91745958 </i>
   </energy>
  </scstep>
  <structure>
   <crystal>
    <varray name="basis" >
     <v>      -0.00000340       6.48458704       6.48458880 </v>
     <v>       6.48459448       0.00000454       6.48459324 </v>
     <v>       6.48460158       6.48459856       0.00000634 </v>
    </varray>
    <i name="volume">    545.35350099 </i>
    <varray name="rec_basis" >
     <v>      -0.07710592       0.07710588       0.07710588 </v>
     <v>       0.07710579      -0.07710590       0.07710592 </v>
     <v>       0.07710573       0.07710586      -0.07710580 </v>
    </varray>
   </crystal>
   <varray name="positions" >
    <v>       0.00109323       0.00000316       0.99999723 </v>
    <v>       0.50000278       0.00000316       0.99999723 </v>
    <v>       0.00000278       0.50000316       0.99999723 </v>
    <v>       0.50000278       0.50000316       0.99999723 </v>
    <v>       0.00000278       0.00000316       0.49999723 </v>
    <v>       0.50000278       0.00000316       0.49999723 </v>
    <v>       0.00000278       0.50000316       0.49999723 </v>
    <v>       0.50000278       0.50000316       0.49999723 </v>
    <v>       0.37499722       0.37499684       0.37500277 </v>
    <v>       0.87499722       0.37499684       0.37500277 </v>
    <v>       0.37499722       0.87499684       0.37500277 </v>
    <v>       0.87499722       0.87499684       0.37500277 </v>
    <v>       0.37499722       0.37499684       0.87500277 </v>
    <v>       0.87499722       0.37499684       0.87500277 </v>
    <v>       0.37499722       0.87499684       0.87500277 </v>
    <v>       0.87499722       0.87499684       0.87500277 </v>
   </varray>
  </structure>
  <varray name="forces" >
   <v>       0.00075205      -0.03470612      -0.03506169 </v>
   <v>      -0.00003598       0.00439726       0.00404174 </v>
   <v>       0.00225133      -0.00309494       0.00176896 </v>
   <v>      -0.00228681       0.00213117      -0.00344586 </v>
   <v>       0.00225144       0.00212456      -0.00345032 </v>
   <v>      -0.00228692      -0.00309010       0.00177565 </v>
   <v>      -0.00001881      -0.00014125      -0.00049682 </v>
   <v>      -0.00002199       0.00053078       0.00017521 </v>
   <v>       0.00034486       0.00002460       0.00038014 </v>
   <v>      -0.00030212       0.00002551       0.00038111 </v>
   <v>       0.00002085      -0.00029749       0.00005629 </v>
   <v>      -0.00002874       0.00013586       0.00059070 </v>
   <v>       0.00002086      -0.00029936       0.00005800 </v>
   <v>      -0.00002878       0.00023455       0.00049077 </v>
   <v>      -0.01614477       0.01628553       0.01664032 </v>
   <v>       0.01551352       0.01573946       0.01609579 </v>
  </varray>
  <varray name="stress" >
   <v>       2.13055858      -0.13560316      -0.12416936 </v>
   <v>      -0.13560284       2.12954737       0.00197974 </v>
   <v>      -0.12416930       0.00197953       2.12960644 </v>
  </varray>
  <energy>
   <i name="e_fr_energy">    -43.91745958 </i>
   <i name="e_wo_entrp">    -43.91745958 </i>
   <i name="e_0_energy">    -43.91745958 </i>
  </energy>
  <time name="totalsc"> 2776.61 2777.56</time>
  <eigenvalues>
   <array>
    <dimension dim="1">band</dimension>
    <dimension dim="2">kpoint</dimension>
    <dimension dim="3">spin</dimension>
    <field>eigene</field>
    <field>occ</field>
    <set>
     <set comment="spin 1">
      <set comment="kpoint 1">
       <r>   -9.0081    1.0000 </r>
       <r>   -8.6087    1.0000 </r>
       <r>   -8.6032    1.0000 </r>
       <r>   -8.6032    1.0000 </r>
       <r>   -8.5983    1.0000 </r>
       <r>   -8.4829    1.0000 </r>
       <r>   -8.4796    1.0000 </r>
       <r>   -8.4758    1.0000 </r>
       <r>   -6.0552    1.0000 </r>
       <r>   -6.0546    1.0000 </r>
       <r>   -6.0541    1.0000 </r>
       <r>   -5.9921    1.0000 </r>
       <r>   -5.9913    1.0000 </r>
       <r>   -5.9910    1.0000 </r>
       <r>   -5.9908    1.0000 </r>
       <r>   -5.9908    1.0000 </r>
       <r>   -5.9905    1.0000 </r>
       <r>   -5.9903    1.0000 </r>
       <r>   -5.9895    1.0000 </r>
       <r>   -5.8986    1.0000 </r>
       <r>   -5.8986    1.0000 </r>
       <r>   -5.8986    1.0000 </r>
       <r>   -5.8899    1.0000 </r>
       <r>   -5.8893    1.0000 </r>
       <r>   -5.8891    1.0000 </r>
       <r>   -5.8891    1.0000 </r>
       <r>   -5.8889    1.0000 </r>
       <r>   -5.8883    1.0000 </r>
       <r>   -5.7911    1.0000 </r>
       <r>   -5.7911    1.0000 </r>
       <r>   -5.7822    1.0000 </r>
       <r>   -5.7821    1.0000 </r>
       <r>   -5.7819    1.0000 </r>
       <r>   -5.7819    1.0000 </r>
       <r>   -5.7819    1.0000 </r>
       <r>   -5.7818    1.0000 </r>
       <r>   -5.7816    1.0000 </r>
       <r>   -5.7816    1.0000 </r>
       <r>   -5.7597    1.0000 </r>
       <r>   -5.7597    1.0000 </r>
       <r>   -5.7596    1.0000 </r>
       <r>   -5.4470    1.0000 </r>
       <r>   -5.4463    1.0000 </r>
       <r>   -5.4463    1.0000 </r>
       <r>   -5.4456    1.0000 </r>
       <r>   -5.3113    1.0000 </r>
       <r>   -5.3108    1.0000 </r>
       <r>   -5.3104    1.0000 </r>
       <r>   -2.2734    1.0000 </r>
       <r>   -2.2695    1.0000 </r>
       <r>   -2.2694    1.0000 </r>
       <r>   -2.2656    1.0000 </r>
       <r>   -2.1459    1.0000 </r>
       <r>   -2.1459    1.0000 </r>
       <r>   -2.1458    1.0000 </r>
       <r>    0.3128    1.0000 </r>
       <r>    0.3139    1.0000 </r>
       <r>    0.3150    1.0000 </r>
       <r>    0.3150    1.0000 </r>
       <r>    0.3160    1.0000 </r>
       <r>    0.3171    1.0000 </r>
       <r>    1.4094    1.0000 </r>
       <r>    1.4124    1.0000 </r>
       <r>    1.4128    1.0000 </r>
       <r>    1.4131    1.0000 </r>
       <r>    1.4151    1.0000 </r>
       <r>    1.4154    1.0000 </r>
       <r>    1.4158    1.0000 </r>
       <r>    1.4188    1.0000 </r>
       <r>    2.1941    1.0000 </r>
       <r>    2.1952    1.0000 </r>
       <r>    2.1963    1.0000 </r>
       <r>    2.8527    0.0000 </r>
       <r>    3.9245    0.0000 </r>
       <r>    3.9261    0.0000 </r>
       <r>    3.9262    0.0000 </r>
       <r>    3.9278    0.0000 </r>
       <r>    4.6852    0.0000 </r>
       <r>    4.6892    0.0000 </r>
       <r>    4.6932    0.0000 </r>
       <r>    4.7940    0.0000 </r>
       <r>    4.7940    0.0000 </r>
       <r>    4.7940    0.0000 </r>
       <r>    6.7417    0.0000 </r>
       <r>    6.7425    0.0000 </r>
       <r>    6.7435    0.0000 </r>
       <r>    7.3204    0.0000 </r>
       <r>    7.3217    0.0000 </r>
       <r>    7.3257    0.0000 </r>
       <r>    7.3259    0.0000 </r>
       <r>    7.3260    0.0000 </r>
       <r>    7.3262    0.0000 </r>
       <r>    7.3303    0.0000 </r>
       <r>    7.3316    0.0000 </r>
       <r>    9.1223    0.0000 </r>
       <r>    9.1267    0.0000 </r>
       <r>    9.1267    0.0000 </r>
       <r>    9.1310    0.0000 </r>
       <r>    9.4921    0.0000 </r>
       <r>   10.7104    0.0000 </r>
       <r>   10.7110    0.0000 </r>
       <r>   10.7111    0.0000 </r>
       <r>   10.7117    0.0000 </r>
       <r>   10.9097    0.0000 </r>
       <r>   10.9097    0.0000 </r>
       <r>   10.9097    0.0000 </r>
       <r>   11.2533    0.0000 </r>
       <r>   11.2564    0.0000 </r>
       <r>   11.2570    0.0000 </r>
       <r>   11.2571    0.0000 </r>
       <r>   11.2577    0.0000 </r>
       <r>   11.2609    0.0000 </r>
      </set>
      <set comment="kpoint 2">
       <r>   -8.9810    1.0000 </r>
       <r>   -8.6301    1.0000 </r>
       <r>   -8.5990    1.0000 </r>
       <r>   -8.5952    1.0000 </r>
       <r>   -8.5917    1.0000 </r>
       <r>   -8.4914    1.0000 </r>
       <r>   -8.4881    1.0000 </r>
       <r>   -8.4843    1.0000 </r>
       <r>   -6.0495    1.0000 </r>
       <r>   -6.0489    1.0000 </r>
       <r>   -6.0359    1.0000 </r>
       <r>   -5.9935    1.0000 </r>
       <r>   -5.9933    1.0000 </r>
       <r>   -5.9887    1.0000 </r>
       <r>   -5.9875    1.0000 </r>
       <r>   -5.9872    1.0000 </r>
       <r>   -5.9841    1.0000 </r>
       <r>   -5.9836    1.0000 </r>
       <r>   -5.9832    1.0000 </r>
       <r>   -5.9116    1.0000 </r>
       <r>   -5.9110    1.0000 </r>
       <r>   -5.9108    1.0000 </r>
       <r>   -5.8952    1.0000 </r>
       <r>   -5.8950    1.0000 </r>
       <r>   -5.8945    1.0000 </r>
       <r>   -5.8786    1.0000 </r>
       <r>   -5.8783    1.0000 </r>
       <r>   -5.8781    1.0000 </r>
       <r>   -5.7919    1.0000 </r>
       <r>   -5.7916    1.0000 </r>
       <r>   -5.7890    1.0000 </r>
       <r>   -5.7890    1.0000 </r>
       <r>   -5.7884    1.0000 </r>
       <r>   -5.7839    1.0000 </r>
       <r>   -5.7837    1.0000 </r>
       <r>   -5.7813    1.0000 </r>
       <r>   -5.7811    1.0000 </r>
       <r>   -5.7810    1.0000 </r>
       <r>   -5.7625    1.0000 </r>
       <r>   -5.7624    1.0000 </r>
       <r>   -5.7623    1.0000 </r>
       <r>   -5.5261    1.0000 </r>
       <r>   -5.4408    1.0000 </r>
       <r>   -5.4404    1.0000 </r>
       <r>   -5.4398    1.0000 </r>
       <r>   -5.3251    1.0000 </r>
       <r>   -5.3247    1.0000 </r>
       <r>   -5.3242    1.0000 </r>
       <r>   -2.2100    1.0000 </r>
       <r>   -2.2085    1.0000 </r>
       <r>   -2.2050    1.0000 </r>
       <r>   -2.0763    1.0000 </r>
       <r>   -2.0760    1.0000 </r>
       <r>   -2.0759    1.0000 </r>
       <r>   -2.0391    1.0000 </r>
       <r>    0.1939    1.0000 </r>
       <r>    0.1959    1.0000 </r>
       <r>    0.1970    1.0000 </r>
       <r>    0.3754    1.0000 </r>
       <r>    0.3769    1.0000 </r>
       <r>    0.3770    1.0000 </r>
       <r>    1.0951    1.0000 </r>
       <r>    1.0985    1.0000 </r>
       <r>    1.1003    1.0000 </r>
       <r>    1.3227    1.0000 </r>
       <r>    1.3234    1.0000 </r>
       <r>    1.3243    1.0000 </r>
       <r>    1.4474    1.0000 </r>
       <r>    1.4562    1.0000 </r>
       <r>    1.4582    1.0000 </r>
       <r>    2.1299    1.0000 </r>
       <r>    2.1310    1.0000 </r>
       <r>    3.4543    0.0000 </r>
       <r>    3.9591    0.0000 </r>
       <r>    4.2906    0.0000 </r>
       <r>    4.2921    0.0000 </r>
       <r>    4.2922    0.0000 </r>
       <r>    4.7730    0.0000 </r>
       <r>    4.7764    0.0000 </r>
       <r>    4.7779    0.0000 </r>
       <r>    5.0694    0.0000 </r>
       <r>    5.0701    0.0000 </r>
       <r>    5.0726    0.0000 </r>
       <r>    6.6888    0.0000 </r>
       <r>    6.8437    0.0000 </r>
       <r>    6.8447    0.0000 </r>
       <r>    7.0892    0.0000 </r>
       <r>    7.0907    0.0000 </r>
       <r>    7.0942    0.0000 </r>
       <r>    7.3433    0.0000 </r>
       <r>    7.3467    0.0000 </r>
       <r>    7.5220    0.0000 </r>
       <r>    7.5220    0.0000 </r>
       <r>    7.5256    0.0000 </r>
       <r>    8.9962    0.0000 </r>
       <r>    9.2259    0.0000 </r>
       <r>    9.2288    0.0000 </r>
       <r>    9.2310    0.0000 </r>
       <r>    9.8891    0.0000 </r>
       <r>   10.2528    0.0000 </r>
       <r>   10.2529    0.0000 </r>
       <r>   10.2543    0.0000 </r>
       <r>   10.3249    0.0000 </r>
       <r>   10.6485    0.0000 </r>
       <r>   10.6488    0.0000 </r>
       <r>   10.6501    0.0000 </r>
       <r>   10.7688    0.0000 </r>
       <r>   10.7705    0.0000 </r>
       <r>   10.7720    0.0000 </r>
       <r>   11.0458    0.0000 </r>
       <r>   11.0460    0.0000 </r>
       <r>   11.2482    0.0000 </r>
      </set>
      <set comment="kpoint 3">
       <r>   -8.9811    1.0000 </r>
       <r>   -8.6304    1.0000 </r>
       <r>   -8.5988    1.0000 </r>
       <r>   -8.5952    1.0000 </r>
       <r>   -8.5916    1.0000 </r>
       <r>   -8.4914    1.0000 </r>
       <r>   -8.4881    1.0000 </r>
       <r>   -8.4843    1.0000 </r>
       <r>   -6.0499    1.0000 </r>
       <r>   -6.0490    1.0000 </r>
       <r>   -6.0354    1.0000 </r>
       <r>   -5.9942    1.0000 </r>
       <r>   -5.9937    1.0000 </r>
       <r>   -5.9881    1.0000 </r>
       <r>   -5.9875    1.0000 </r>
       <r>   -5.9869    1.0000 </r>
       <r>   -5.9844    1.0000 </r>
       <r>   -5.9836    1.0000 </r>
       <r>   -5.9829    1.0000 </r>
       <r>   -5.9114    1.0000 </r>
       <r>   -5.9110    1.0000 </r>
       <r>   -5.9106    1.0000 </r>
       <r>   -5.8958    1.0000 </r>
       <r>   -5.8952    1.0000 </r>
       <r>   -5.8946    1.0000 </r>
       <r>   -5.8785    1.0000 </r>
       <r>   -5.8782    1.0000 </r>
       <r>   -5.8779    1.0000 </r>
       <r>   -5.7919    1.0000 </r>
       <r>   -5.7917    1.0000 </r>
       <r>   -5.7889    1.0000 </r>
       <r>   -5.7887    1.0000 </r>
       <r>   -5.7883    1.0000 </r>
       <r>   -5.7840    1.0000 </r>
       <r>   -5.7838    1.0000 </r>
       <r>   -5.7813    1.0000 </r>
       <r>   -5.7811    1.0000 </r>
       <r>   -5.7810    1.0000 </r>
       <r>   -5.7625    1.0000 </r>
       <r>   -5.7624    1.0000 </r>
       <r>   -5.7624    1.0000 </r>
       <r>   -5.5258    1.0000 </r>
       <r>   -5.4409    1.0000 </r>
       <r>   -5.4404    1.0000 </r>
       <r>   -5.4399    1.0000 </r>
       <r>   -5.3251    1.0000 </r>
       <r>   -5.3247    1.0000 </r>
       <r>   -5.3242    1.0000 </r>
       <r>   -2.2117    1.0000 </r>
       <r>   -2.2085    1.0000 </r>
       <r>   -2.2055    1.0000 </r>
       <r>   -2.0765    1.0000 </r>
       <r>   -2.0762    1.0000 </r>
       <r>   -2.0757    1.0000 </r>
       <r>   -2.0373    1.0000 </r>
       <r>    0.1950    1.0000 </r>
       <r>    0.1961    1.0000 </r>
       <r>    0.1971    1.0000 </r>
       <r>    0.3747    1.0000 </r>
       <r>    0.3761    1.0000 </r>
       <r>    0.3776    1.0000 </r>
       <r>    1.0975    1.0000 </r>
       <r>    1.0992    1.0000 </r>
       <r>    1.1009    1.0000 </r>
       <r>    1.3210    1.0000 </r>
       <r>    1.3222    1.0000 </r>
       <r>    1.3235    1.0000 </r>
       <r>    1.4483    1.0000 </r>
       <r>    1.4558    1.0000 </r>
       <r>    1.4591    1.0000 </r>
       <r>    2.1291    1.0000 </r>
       <r>    2.1310    1.0000 </r>
       <r>    3.4542    0.0000 </r>
       <r>    3.9576    0.0000 </r>
       <r>    4.2907    0.0000 </r>
       <r>    4.2920    0.0000 </r>
       <r>    4.2934    0.0000 </r>
       <r>    4.7720    0.0000 </r>
       <r>    4.7749    0.0000 </r>
       <r>    4.7778    0.0000 </r>
       <r>    5.0697    0.0000 </r>
       <r>    5.0714    0.0000 </r>
       <r>    5.0732    0.0000 </r>
       <r>    6.6881    0.0000 </r>
       <r>    6.8436    0.0000 </r>
       <r>    6.8454    0.0000 </r>
       <r>    7.0882    0.0000 </r>
       <r>    7.0897    0.0000 </r>
       <r>    7.0912    0.0000 </r>
       <r>    7.3414    0.0000 </r>
       <r>    7.3471    0.0000 </r>
       <r>    7.5254    0.0000 </r>
       <r>    7.5255    0.0000 </r>
       <r>    7.5255    0.0000 </r>
       <r>    8.9953    0.0000 </r>
       <r>    9.2266    0.0000 </r>
       <r>    9.2292    0.0000 </r>
       <r>    9.2318    0.0000 </r>
       <r>    9.8891    0.0000 </r>
       <r>   10.2521    0.0000 </r>
       <r>   10.2536    0.0000 </r>
       <r>   10.2550    0.0000 </r>
       <r>   10.3251    0.0000 </r>
       <r>   10.6481    0.0000 </r>
       <r>   10.6486    0.0000 </r>
       <r>   10.6491    0.0000 </r>
       <r>   10.7700    0.0000 </r>
       <r>   10.7715    0.0000 </r>
       <r>   10.7730    0.0000 </r>
       <r>   11.0460    0.0000 </r>
       <r>   11.0464    0.0000 </r>
       <r>   11.2474    0.0000 </r>
      </set>
      <set comment="kpoint 4">
       <r>   -8.9811    1.0000 </r>
       <r>   -8.6304    1.0000 </r>
       <r>   -8.5988    1.0000 </r>
       <r>   -8.5952    1.0000 </r>
       <r>   -8.5916    1.0000 </r>
       <r>   -8.4914    1.0000 </r>
       <r>   -8.4881    1.0000 </r>
       <r>   -8.4843    1.0000 </r>
       <r>   -6.0500    1.0000 </r>
       <r>   -6.0490    1.0000 </r>
       <r>   -6.0353    1.0000 </r>
       <r>   -5.9942    1.0000 </r>
       <r>   -5.9937    1.0000 </r>
       <r>   -5.9880    1.0000 </r>
       <r>   -5.9875    1.0000 </r>
       <r>   -5.9869    1.0000 </r>
       <r>   -5.9844    1.0000 </r>
       <r>   -5.9836    1.0000 </r>
       <r>   -5.9829    1.0000 </r>
       <r>   -5.9114    1.0000 </r>
       <r>   -5.9110    1.0000 </r>
       <r>   -5.9106    1.0000 </r>
       <r>   -5.8958    1.0000 </r>
       <r>   -5.8952    1.0000 </r>
       <r>   -5.8947    1.0000 </r>
       <r>   -5.8785    1.0000 </r>
       <r>   -5.8782    1.0000 </r>
       <r>   -5.8778    1.0000 </r>
       <r>   -5.7919    1.0000 </r>
       <r>   -5.7917    1.0000 </r>
       <r>   -5.7889    1.0000 </r>
       <r>   -5.7887    1.0000 </r>
       <r>   -5.7883    1.0000 </r>
       <r>   -5.7840    1.0000 </r>
       <r>   -5.7838    1.0000 </r>
       <r>   -5.7813    1.0000 </r>
       <r>   -5.7811    1.0000 </r>
       <r>   -5.7810    1.0000 </r>
       <r>   -5.7625    1.0000 </r>
       <r>   -5.7624    1.0000 </r>
       <r>   -5.7624    1.0000 </r>
       <r>   -5.5258    1.0000 </r>
       <r>   -5.4409    1.0000 </r>
       <r>   -5.4404    1.0000 </r>
       <r>   -5.4399    1.0000 </r>
       <r>   -5.3251    1.0000 </r>
       <r>   -5.3247    1.0000 </r>
       <r>   -5.3242    1.0000 </r>
       <r>   -2.2117    1.0000 </r>
       <r>   -2.2086    1.0000 </r>
       <r>   -2.2055    1.0000 </r>
       <r>   -2.0765    1.0000 </r>
       <r>   -2.0762    1.0000 </r>
       <r>   -2.0758    1.0000 </r>
       <r>   -2.0372    1.0000 </r>
       <r>    0.1951    1.0000 </r>
       <r>    0.1961    1.0000 </r>
       <r>    0.1972    1.0000 </r>
       <r>    0.3747    1.0000 </r>
       <r>    0.3761    1.0000 </r>
       <r>    0.3776    1.0000 </r>
       <r>    1.0976    1.0000 </r>
       <r>    1.0993    1.0000 </r>
       <r>    1.1010    1.0000 </r>
       <r>    1.3209    1.0000 </r>
       <r>    1.3221    1.0000 </r>
       <r>    1.3234    1.0000 </r>
       <r>    1.4484    1.0000 </r>
       <r>    1.4558    1.0000 </r>
       <r>    1.4591    1.0000 </r>
       <r>    2.1291    1.0000 </r>
       <r>    2.1310    1.0000 </r>
       <r>    3.4541    0.0000 </r>
       <r>    3.9575    0.0000 </r>
       <r>    4.2907    0.0000 </r>
       <r>    4.2921    0.0000 </r>
       <r>    4.2934    0.0000 </r>
       <r>    4.7720    0.0000 </r>
       <r>    4.7749    0.0000 </r>
       <r>    4.7777    0.0000 </r>
       <r>    5.0697    0.0000 </r>
       <r>    5.0715    0.0000 </r>
       <r>    5.0732    0.0000 </r>
       <r>    6.6880    0.0000 </r>
       <r>    6.8436    0.0000 </r>
       <r>    6.8454    0.0000 </r>
       <r>    7.0880    0.0000 </r>
       <r>    7.0896    0.0000 </r>
       <r>    7.0911    0.0000 </r>
       <r>    7.3414    0.0000 </r>
       <r>    7.3470    0.0000 </r>
       <r>    7.5256    0.0000 </r>
       <r>    7.5257    0.0000 </r>
       <r>    7.5257    0.0000 </r>
       <r>    8.9953    0.0000 </r>
       <r>    9.2266    0.0000 </r>
       <r>    9.2292    0.0000 </r>
       <r>    9.2319    0.0000 </r>
       <r>    9.8891    0.0000 </r>
       <r>   10.2521    0.0000 </r>
       <r>   10.2536    0.0000 </r>
       <r>   10.2550    0.0000 </r>
       <r>   10.3252    0.0000 </r>
       <r>   10.6480    0.0000 </r>
       <r>   10.6486    0.0000 </r>
       <r>   10.6491    0.0000 </r>
       <r>   10.7701    0.0000 </r>
       <r>   10.7716    0.0000 </r>
       <r>   10.7731    0.0000 </r>
       <r>   11.0460    0.0000 </r>
       <r>   11.0464    0.0000 </r>
       <r>   11.2467    0.0000 </r>
      </set>
      <set comment="kpoint 5">
       <r>   -8.9811    1.0000 </r>
       <r>   -8.6305    1.0000 </r>
       <r>   -8.5988    1.0000 </r>
       <r>   -8.5952    1.0000 </r>
       <r>   -8.5915    1.0000 </r>
       <r>   -8.4914    1.0000 </r>
       <r>   -8.4881    1.0000 </r>
       <r>   -8.4843    1.0000 </r>
       <r>   -6.0501    1.0000 </r>
       <r>   -6.0495    1.0000 </r>
       <r>   -6.0348    1.0000 </r>
       <r>   -5.9945    1.0000 </r>
       <r>   -5.9942    1.0000 </r>
       <r>   -5.9877    1.0000 </r>
       <r>   -5.9875    1.0000 </r>
       <r>   -5.9863    1.0000 </r>
       <r>   -5.9841    1.0000 </r>
       <r>   -5.9838    1.0000 </r>
       <r>   -5.9832    1.0000 </r>
       <r>   -5.9112    1.0000 </r>
       <r>   -5.9110    1.0000 </r>
       <r>   -5.9105    1.0000 </r>
       <r>   -5.8959    1.0000 </r>
       <r>   -5.8953    1.0000 </r>
       <r>   -5.8952    1.0000 </r>
       <r>   -5.8782    1.0000 </r>
       <r>   -5.8780    1.0000 </r>
       <r>   -5.8778    1.0000 </r>
       <r>   -5.7918    1.0000 </r>
       <r>   -5.7916    1.0000 </r>
       <r>   -5.7888    1.0000 </r>
       <r>   -5.7887    1.0000 </r>
       <r>   -5.7885    1.0000 </r>
       <r>   -5.7837    1.0000 </r>
       <r>   -5.7836    1.0000 </r>
       <r>   -5.7815    1.0000 </r>
       <r>   -5.7813    1.0000 </r>
       <r>   -5.7812    1.0000 </r>
       <r>   -5.7625    1.0000 </r>
       <r>   -5.7624    1.0000 </r>
       <r>   -5.7623    1.0000 </r>
       <r>   -5.5255    1.0000 </r>
       <r>   -5.4410    1.0000 </r>
       <r>   -5.4404    1.0000 </r>
       <r>   -5.4400    1.0000 </r>
       <r>   -5.3251    1.0000 </r>
       <r>   -5.3247    1.0000 </r>
       <r>   -5.3242    1.0000 </r>
       <r>   -2.2122    1.0000 </r>
       <r>   -2.2087    1.0000 </r>
       <r>   -2.2071    1.0000 </r>
       <r>   -2.0767    1.0000 </r>
       <r>   -2.0762    1.0000 </r>
       <r>   -2.0761    1.0000 </r>
       <r>   -2.0351    1.0000 </r>
       <r>    0.1952    1.0000 </r>
       <r>    0.1963    1.0000 </r>
       <r>    0.1983    1.0000 </r>
       <r>    0.3752    1.0000 </r>
       <r>    0.3754    1.0000 </r>
       <r>    0.3768    1.0000 </r>
       <r>    1.0982    1.0000 </r>
       <r>    1.0999    1.0000 </r>
       <r>    1.1034    1.0000 </r>
       <r>    1.3200    1.0000 </r>
       <r>    1.3211    1.0000 </r>
       <r>    1.3217    1.0000 </r>
       <r>    1.4494    1.0000 </r>
       <r>    1.4567    1.0000 </r>
       <r>    1.4586    1.0000 </r>
       <r>    2.1291    1.0000 </r>
       <r>    2.1302    1.0000 </r>
       <r>    3.4540    0.0000 </r>
       <r>    3.9560    0.0000 </r>
       <r>    4.2919    0.0000 </r>
       <r>    4.2921    0.0000 </r>
       <r>    4.2936    0.0000 </r>
       <r>    4.7719    0.0000 </r>
       <r>    4.7734    0.0000 </r>
       <r>    4.7767    0.0000 </r>
       <r>    5.0704    0.0000 </r>
       <r>    5.0727    0.0000 </r>
       <r>    5.0735    0.0000 </r>
       <r>    6.6873    0.0000 </r>
       <r>    6.8442    0.0000 </r>
       <r>    6.8453    0.0000 </r>
       <r>    7.0851    0.0000 </r>
       <r>    7.0886    0.0000 </r>
       <r>    7.0900    0.0000 </r>
       <r>    7.3418    0.0000 </r>
       <r>    7.3450    0.0000 </r>
       <r>    7.5255    0.0000 </r>
       <r>    7.5291    0.0000 </r>
       <r>    7.5292    0.0000 </r>
       <r>    8.9944    0.0000 </r>
       <r>    9.2275    0.0000 </r>
       <r>    9.2296    0.0000 </r>
       <r>    9.2324    0.0000 </r>
       <r>    9.8892    0.0000 </r>
       <r>   10.2529    0.0000 </r>
       <r>   10.2542    0.0000 </r>
       <r>   10.2543    0.0000 </r>
       <r>   10.3254    0.0000 </r>
       <r>   10.6470    0.0000 </r>
       <r>   10.6484    0.0000 </r>
       <r>   10.6487    0.0000 </r>
       <r>   10.7711    0.0000 </r>
       <r>   10.7725    0.0000 </r>
       <r>   10.7743    0.0000 </r>
       <r>   11.0464    0.0000 </r>
       <r>   11.0466    0.0000 </r>
       <r>   11.2453    0.0000 </r>
      </set>
      <set comment="kpoint 6">
       <r>   -8.9068    1.0000 </r>
       <r>   -8.7033    1.0000 </r>
       <r>   -8.5772    1.0000 </r>
       <r>   -8.5731    1.0000 </r>
       <r>   -8.5698    1.0000 </r>
       <r>   -8.5144    1.0000 </r>
       <r>   -8.5112    1.0000 </r>
       <r>   -8.5072    1.0000 </r>
       <r>   -6.0358    1.0000 </r>
       <r>   -6.0353    1.0000 </r>
       <r>   -6.0030    1.0000 </r>
       <r>   -6.0027    1.0000 </r>
       <r>   -5.9784    1.0000 </r>
       <r>   -5.9767    1.0000 </r>
       <r>   -5.9766    1.0000 </r>
       <r>   -5.9729    1.0000 </r>
       <r>   -5.9647    1.0000 </r>
       <r>   -5.9642    1.0000 </r>
       <r>   -5.9638    1.0000 </r>
       <r>   -5.9341    1.0000 </r>
       <r>   -5.9332    1.0000 </r>
       <r>   -5.9331    1.0000 </r>
       <r>   -5.9128    1.0000 </r>
       <r>   -5.9125    1.0000 </r>
       <r>   -5.9121    1.0000 </r>
       <r>   -5.8586    1.0000 </r>
       <r>   -5.8584    1.0000 </r>
       <r>   -5.8583    1.0000 </r>
       <r>   -5.8078    1.0000 </r>
       <r>   -5.8077    1.0000 </r>
       <r>   -5.8077    1.0000 </r>
       <r>   -5.7925    1.0000 </r>
       <r>   -5.7923    1.0000 </r>
       <r>   -5.7880    1.0000 </r>
       <r>   -5.7878    1.0000 </r>
       <r>   -5.7791    1.0000 </r>
       <r>   -5.7788    1.0000 </r>
       <r>   -5.7788    1.0000 </r>
       <r>   -5.7686    1.0000 </r>
       <r>   -5.7684    1.0000 </r>
       <r>   -5.7683    1.0000 </r>
       <r>   -5.6967    1.0000 </r>
       <r>   -5.4230    1.0000 </r>
       <r>   -5.4226    1.0000 </r>
       <r>   -5.4219    1.0000 </r>
       <r>   -5.3580    1.0000 </r>
       <r>   -5.3576    1.0000 </r>
       <r>   -5.3570    1.0000 </r>
       <r>   -2.0570    1.0000 </r>
       <r>   -2.0556    1.0000 </r>
       <r>   -2.0525    1.0000 </r>
       <r>   -1.9400    1.0000 </r>
       <r>   -1.9392    1.0000 </r>
       <r>   -1.9379    1.0000 </r>
       <r>   -1.4246    1.0000 </r>
       <r>    0.0108    1.0000 </r>
       <r>    0.0132    1.0000 </r>
       <r>    0.0145    1.0000 </r>
       <r>    0.4217    1.0000 </r>
       <r>    0.5191    1.0000 </r>
       <r>    0.5222    1.0000 </r>
       <r>    0.5239    1.0000 </r>
       <r>    0.5493    1.0000 </r>
       <r>    0.5505    1.0000 </r>
       <r>    0.5509    1.0000 </r>
       <r>    1.0900    1.0000 </r>
       <r>    1.0907    1.0000 </r>
       <r>    1.0915    1.0000 </r>
       <r>    1.5796    1.0000 </r>
       <r>    1.5814    1.0000 </r>
       <r>    1.9644    1.0000 </r>
       <r>    1.9657    1.0000 </r>
       <r>    3.9734    0.0000 </r>
       <r>    4.0390    0.0000 </r>
       <r>    4.9016    0.0000 </r>
       <r>    4.9024    0.0000 </r>
       <r>    4.9030    0.0000 </r>
       <r>    4.9332    0.0000 </r>
       <r>    4.9363    0.0000 </r>
       <r>    4.9368    0.0000 </r>
       <r>    5.8274    0.0000 </r>
       <r>    5.8284    0.0000 </r>
       <r>    5.8313    0.0000 </r>
       <r>    6.8191    0.0000 </r>
       <r>    6.8201    0.0000 </r>
       <r>    6.8237    0.0000 </r>
       <r>    6.8398    0.0000 </r>
       <r>    7.0816    0.0000 </r>
       <r>    7.0832    0.0000 </r>
       <r>    7.3634    0.0000 </r>
       <r>    7.3664    0.0000 </r>
       <r>    8.0756    0.0000 </r>
       <r>    8.0757    0.0000 </r>
       <r>    8.0789    0.0000 </r>
       <r>    8.3530    0.0000 </r>
       <r>    8.6887    0.0000 </r>
       <r>    8.6899    0.0000 </r>
       <r>    8.6906    0.0000 </r>
       <r>    9.0925    0.0000 </r>
       <r>    9.0930    0.0000 </r>
       <r>    9.0944    0.0000 </r>
       <r>    9.8354    0.0000 </r>
       <r>    9.8362    0.0000 </r>
       <r>    9.8384    0.0000 </r>
       <r>   10.1210    0.0000 </r>
       <r>   10.4948    0.0000 </r>
       <r>   10.6147    0.0000 </r>
       <r>   10.6148    0.0000 </r>
       <r>   10.9070    0.0000 </r>
       <r>   10.9085    0.0000 </r>
       <r>   10.9122    0.0000 </r>
       <r>   11.0223    0.0000 </r>
      </set>
      <set comment="kpoint 7">
       <r>   -8.9068    1.0000 </r>
       <r>   -8.7035    1.0000 </r>
       <r>   -8.5770    1.0000 </r>
       <r>   -8.5731    1.0000 </r>
       <r>   -8.5697    1.0000 </r>
       <r>   -8.5144    1.0000 </r>
       <r>   -8.5112    1.0000 </r>
       <r>   -8.5073    1.0000 </r>
       <r>   -6.0362    1.0000 </r>
       <r>   -6.0354    1.0000 </r>
       <r>   -6.0037    1.0000 </r>
       <r>   -6.0031    1.0000 </r>
       <r>   -5.9778    1.0000 </r>
       <r>   -5.9767    1.0000 </r>
       <r>   -5.9765    1.0000 </r>
       <r>   -5.9723    1.0000 </r>
       <r>   -5.9650    1.0000 </r>
       <r>   -5.9643    1.0000 </r>
       <r>   -5.9635    1.0000 </r>
       <r>   -5.9337    1.0000 </r>
       <r>   -5.9332    1.0000 </r>
       <r>   -5.9328    1.0000 </r>
       <r>   -5.9133    1.0000 </r>
       <r>   -5.9127    1.0000 </r>
       <r>   -5.9121    1.0000 </r>
       <r>   -5.8585    1.0000 </r>
       <r>   -5.8583    1.0000 </r>
       <r>   -5.8581    1.0000 </r>
       <r>   -5.8078    1.0000 </r>
       <r>   -5.8077    1.0000 </r>
       <r>   -5.8075    1.0000 </r>
       <r>   -5.7922    1.0000 </r>
       <r>   -5.7920    1.0000 </r>
       <r>   -5.7882    1.0000 </r>
       <r>   -5.7881    1.0000 </r>
       <r>   -5.7790    1.0000 </r>
       <r>   -5.7789    1.0000 </r>
       <r>   -5.7787    1.0000 </r>
       <r>   -5.7686    1.0000 </r>
       <r>   -5.7685    1.0000 </r>
       <r>   -5.7685    1.0000 </r>
       <r>   -5.6963    1.0000 </r>
       <r>   -5.4230    1.0000 </r>
       <r>   -5.4226    1.0000 </r>
       <r>   -5.4221    1.0000 </r>
       <r>   -5.3580    1.0000 </r>
       <r>   -5.3576    1.0000 </r>
       <r>   -5.3572    1.0000 </r>
       <r>   -2.0588    1.0000 </r>
       <r>   -2.0558    1.0000 </r>
       <r>   -2.0530    1.0000 </r>
       <r>   -1.9408    1.0000 </r>
       <r>   -1.9396    1.0000 </r>
       <r>   -1.9383    1.0000 </r>
       <r>   -1.4229    1.0000 </r>
       <r>    0.0123    1.0000 </r>
       <r>    0.0138    1.0000 </r>
       <r>    0.0152    1.0000 </r>
       <r>    0.4229    1.0000 </r>
       <r>    0.5212    1.0000 </r>
       <r>    0.5230    1.0000 </r>
       <r>    0.5249    1.0000 </r>
       <r>    0.5484    1.0000 </r>
       <r>    0.5498    1.0000 </r>
       <r>    0.5512    1.0000 </r>
       <r>    1.0884    1.0000 </r>
       <r>    1.0897    1.0000 </r>
       <r>    1.0910    1.0000 </r>
       <r>    1.5791    1.0000 </r>
       <r>    1.5821    1.0000 </r>
       <r>    1.9637    1.0000 </r>
       <r>    1.9660    1.0000 </r>
       <r>    3.9728    0.0000 </r>
       <r>    4.0375    0.0000 </r>
       <r>    4.9010    0.0000 </r>
       <r>    4.9025    0.0000 </r>
       <r>    4.9038    0.0000 </r>
       <r>    4.9321    0.0000 </r>
       <r>    4.9345    0.0000 </r>
       <r>    4.9371    0.0000 </r>
       <r>    5.8276    0.0000 </r>
       <r>    5.8295    0.0000 </r>
       <r>    5.8314    0.0000 </r>
       <r>    6.8187    0.0000 </r>
       <r>    6.8196    0.0000 </r>
       <r>    6.8205    0.0000 </r>
       <r>    6.8394    0.0000 </r>
       <r>    7.0810    0.0000 </r>
       <r>    7.0838    0.0000 </r>
       <r>    7.3616    0.0000 </r>
       <r>    7.3668    0.0000 </r>
       <r>    8.0786    0.0000 </r>
       <r>    8.0787    0.0000 </r>
       <r>    8.0789    0.0000 </r>
       <r>    8.3526    0.0000 </r>
       <r>    8.6895    0.0000 </r>
       <r>    8.6910    0.0000 </r>
       <r>    8.6924    0.0000 </r>
       <r>    9.0922    0.0000 </r>
       <r>    9.0938    0.0000 </r>
       <r>    9.0954    0.0000 </r>
       <r>    9.8372    0.0000 </r>
       <r>    9.8380    0.0000 </r>
       <r>    9.8388    0.0000 </r>
       <r>   10.1208    0.0000 </r>
       <r>   10.4946    0.0000 </r>
       <r>   10.6152    0.0000 </r>
       <r>   10.6153    0.0000 </r>
       <r>   10.9063    0.0000 </r>
       <r>   10.9080    0.0000 </r>
       <r>   10.9098    0.0000 </r>
       <r>   11.0241    0.0000 </r>
      </set>
      <set comment="kpoint 8">
       <r>   -8.9068    1.0000 </r>
       <r>   -8.7036    1.0000 </r>
       <r>   -8.5769    1.0000 </r>
       <r>   -8.5731    1.0000 </r>
       <r>   -8.5697    1.0000 </r>
       <r>   -8.5144    1.0000 </r>
       <r>   -8.5112    1.0000 </r>
       <r>   -8.5073    1.0000 </r>
       <r>   -6.0363    1.0000 </r>
       <r>   -6.0354    1.0000 </r>
       <r>   -6.0037    1.0000 </r>
       <r>   -6.0031    1.0000 </r>
       <r>   -5.9777    1.0000 </r>
       <r>   -5.9767    1.0000 </r>
       <r>   -5.9765    1.0000 </r>
       <r>   -5.9722    1.0000 </r>
       <r>   -5.9650    1.0000 </r>
       <r>   -5.9643    1.0000 </r>
       <r>   -5.9635    1.0000 </r>
       <r>   -5.9337    1.0000 </r>
       <r>   -5.9332    1.0000 </r>
       <r>   -5.9328    1.0000 </r>
       <r>   -5.9133    1.0000 </r>
       <r>   -5.9127    1.0000 </r>
       <r>   -5.9121    1.0000 </r>
       <r>   -5.8585    1.0000 </r>
       <r>   -5.8583    1.0000 </r>
       <r>   -5.8581    1.0000 </r>
       <r>   -5.8078    1.0000 </r>
       <r>   -5.8077    1.0000 </r>
       <r>   -5.8075    1.0000 </r>
       <r>   -5.7922    1.0000 </r>
       <r>   -5.7920    1.0000 </r>
       <r>   -5.7882    1.0000 </r>
       <r>   -5.7881    1.0000 </r>
       <r>   -5.7790    1.0000 </r>
       <r>   -5.7789    1.0000 </r>
       <r>   -5.7787    1.0000 </r>
       <r>   -5.7686    1.0000 </r>
       <r>   -5.7685    1.0000 </r>
       <r>   -5.7685    1.0000 </r>
       <r>   -5.6963    1.0000 </r>
       <r>   -5.4230    1.0000 </r>
       <r>   -5.4226    1.0000 </r>
       <r>   -5.4221    1.0000 </r>
       <r>   -5.3580    1.0000 </r>
       <r>   -5.3576    1.0000 </r>
       <r>   -5.3572    1.0000 </r>
       <r>   -2.0589    1.0000 </r>
       <r>   -2.0559    1.0000 </r>
       <r>   -2.0531    1.0000 </r>
       <r>   -1.9408    1.0000 </r>
       <r>   -1.9397    1.0000 </r>
       <r>   -1.9383    1.0000 </r>
       <r>   -1.4228    1.0000 </r>
       <r>    0.0124    1.0000 </r>
       <r>    0.0139    1.0000 </r>
       <r>    0.0153    1.0000 </r>
       <r>    0.4230    1.0000 </r>
       <r>    0.5213    1.0000 </r>
       <r>    0.5231    1.0000 </r>
       <r>    0.5250    1.0000 </r>
       <r>    0.5484    1.0000 </r>
       <r>    0.5498    1.0000 </r>
       <r>    0.5512    1.0000 </r>
       <r>    1.0884    1.0000 </r>
       <r>    1.0896    1.0000 </r>
       <r>    1.0910    1.0000 </r>
       <r>    1.5791    1.0000 </r>
       <r>    1.5822    1.0000 </r>
       <r>    1.9637    1.0000 </r>
       <r>    1.9659    1.0000 </r>
       <r>    3.9727    0.0000 </r>
       <r>    4.0374    0.0000 </r>
       <r>    4.9010    0.0000 </r>
       <r>    4.9026    0.0000 </r>
       <r>    4.9038    0.0000 </r>
       <r>    4.9321    0.0000 </r>
       <r>    4.9344    0.0000 </r>
       <r>    4.9370    0.0000 </r>
       <r>    5.8276    0.0000 </r>
       <r>    5.8295    0.0000 </r>
       <r>    5.8314    0.0000 </r>
       <r>    6.8186    0.0000 </r>
       <r>    6.8195    0.0000 </r>
       <r>    6.8203    0.0000 </r>
       <r>    6.8393    0.0000 </r>
       <r>    7.0810    0.0000 </r>
       <r>    7.0838    0.0000 </r>
       <r>    7.3616    0.0000 </r>
       <r>    7.3668    0.0000 </r>
       <r>    8.0787    0.0000 </r>
       <r>    8.0789    0.0000 </r>
       <r>    8.0791    0.0000 </r>
       <r>    8.3525    0.0000 </r>
       <r>    8.6896    0.0000 </r>
       <r>    8.6911    0.0000 </r>
       <r>    8.6925    0.0000 </r>
       <r>    9.0922    0.0000 </r>
       <r>    9.0938    0.0000 </r>
       <r>    9.0955    0.0000 </r>
       <r>    9.8374    0.0000 </r>
       <r>    9.8381    0.0000 </r>
       <r>    9.8389    0.0000 </r>
       <r>   10.1208    0.0000 </r>
       <r>   10.4946    0.0000 </r>
       <r>   10.6152    0.0000 </r>
       <r>   10.6154    0.0000 </r>
       <r>   10.9062    0.0000 </r>
       <r>   10.9079    0.0000 </r>
       <r>   10.9097    0.0000 </r>
       <r>   11.0238    0.0000 </r>
      </set>
      <set comment="kpoint 9">
       <r>   -8.9069    1.0000 </r>
       <r>   -8.7036    1.0000 </r>
       <r>   -8.5770    1.0000 </r>
       <r>   -8.5731    1.0000 </r>
       <r>   -8.5697    1.0000 </r>
       <r>   -8.5144    1.0000 </r>
       <r>   -8.5112    1.0000 </r>
       <r>   -8.5072    1.0000 </r>
       <r>   -6.0365    1.0000 </r>
       <r>   -6.0359    1.0000 </r>
       <r>   -6.0038    1.0000 </r>
       <r>   -6.0035    1.0000 </r>
       <r>   -5.9771    1.0000 </r>
       <r>   -5.9767    1.0000 </r>
       <r>   -5.9761    1.0000 </r>
       <r>   -5.9718    1.0000 </r>
       <r>   -5.9648    1.0000 </r>
       <r>   -5.9644    1.0000 </r>
       <r>   -5.9639    1.0000 </r>
       <r>   -5.9335    1.0000 </r>
       <r>   -5.9332    1.0000 </r>
       <r>   -5.9324    1.0000 </r>
       <r>   -5.9133    1.0000 </r>
       <r>   -5.9127    1.0000 </r>
       <r>   -5.9126    1.0000 </r>
       <r>   -5.8583    1.0000 </r>
       <r>   -5.8581    1.0000 </r>
       <r>   -5.8580    1.0000 </r>
       <r>   -5.8077    1.0000 </r>
       <r>   -5.8075    1.0000 </r>
       <r>   -5.8074    1.0000 </r>
       <r>   -5.7924    1.0000 </r>
       <r>   -5.7923    1.0000 </r>
       <r>   -5.7878    1.0000 </r>
       <r>   -5.7877    1.0000 </r>
       <r>   -5.7793    1.0000 </r>
       <r>   -5.7790    1.0000 </r>
       <r>   -5.7790    1.0000 </r>
       <r>   -5.7686    1.0000 </r>
       <r>   -5.7685    1.0000 </r>
       <r>   -5.7684    1.0000 </r>
       <r>   -5.6959    1.0000 </r>
       <r>   -5.4232    1.0000 </r>
       <r>   -5.4225    1.0000 </r>
       <r>   -5.4222    1.0000 </r>
       <r>   -5.3581    1.0000 </r>
       <r>   -5.3576    1.0000 </r>
       <r>   -5.3572    1.0000 </r>
       <r>   -2.0594    1.0000 </r>
       <r>   -2.0562    1.0000 </r>
       <r>   -2.0547    1.0000 </r>
       <r>   -1.9412    1.0000 </r>
       <r>   -1.9399    1.0000 </r>
       <r>   -1.9393    1.0000 </r>
       <r>   -1.4211    1.0000 </r>
       <r>    0.0132    1.0000 </r>
       <r>    0.0145    1.0000 </r>
       <r>    0.0168    1.0000 </r>
       <r>    0.4242    1.0000 </r>
       <r>    0.5223    1.0000 </r>
       <r>    0.5239    1.0000 </r>
       <r>    0.5274    1.0000 </r>
       <r>    0.5486    1.0000 </r>
       <r>    0.5490    1.0000 </r>
       <r>    0.5503    1.0000 </r>
       <r>    1.0879    1.0000 </r>
       <r>    1.0887    1.0000 </r>
       <r>    1.0894    1.0000 </r>
       <r>    1.5799    1.0000 </r>
       <r>    1.5816    1.0000 </r>
       <r>    1.9639    1.0000 </r>
       <r>    1.9652    1.0000 </r>
       <r>    3.9719    0.0000 </r>
       <r>    4.0361    0.0000 </r>
       <r>    4.9016    0.0000 </r>
       <r>    4.9026    0.0000 </r>
       <r>    4.9034    0.0000 </r>
       <r>    4.9322    0.0000 </r>
       <r>    4.9331    0.0000 </r>
       <r>    4.9357    0.0000 </r>
       <r>    5.8277    0.0000 </r>
       <r>    5.8306    0.0000 </r>
       <r>    5.8316    0.0000 </r>
       <r>    6.8153    0.0000 </r>
       <r>    6.8191    0.0000 </r>
       <r>    6.8199    0.0000 </r>
       <r>    6.8388    0.0000 </r>
       <r>    7.0815    0.0000 </r>
       <r>    7.0831    0.0000 </r>
       <r>    7.3620    0.0000 </r>
       <r>    7.3650    0.0000 </r>
       <r>    8.0787    0.0000 </r>
       <r>    8.0819    0.0000 </r>
       <r>    8.0821    0.0000 </r>
       <r>    8.3521    0.0000 </r>
       <r>    8.6915    0.0000 </r>
       <r>    8.6921    0.0000 </r>
       <r>    8.6934    0.0000 </r>
       <r>    9.0933    0.0000 </r>
       <r>    9.0946    0.0000 </r>
       <r>    9.0952    0.0000 </r>
       <r>    9.8378    0.0000 </r>
       <r>    9.8399    0.0000 </r>
       <r>    9.8409    0.0000 </r>
       <r>   10.1206    0.0000 </r>
       <r>   10.4945    0.0000 </r>
       <r>   10.6157    0.0000 </r>
       <r>   10.6158    0.0000 </r>
       <r>   10.9036    0.0000 </r>
       <r>   10.9074    0.0000 </r>
       <r>   10.9090    0.0000 </r>
       <r>   11.0237    0.0000 </r>
      </set>
      <set comment="kpoint 10">
       <r>   -8.8081    1.0000 </r>
       <r>   -8.8017    1.0000 </r>
       <r>   -8.5511    1.0000 </r>
       <r>   -8.5431    1.0000 </r>
       <r>   -8.5424    1.0000 </r>
       <r>   -8.5423    1.0000 </r>
       <r>   -8.5417    1.0000 </r>
       <r>   -8.5338    1.0000 </r>
       <r>   -6.0198    1.0000 </r>
       <r>   -6.0198    1.0000 </r>
       <r>   -6.0169    1.0000 </r>
       <r>   -6.0161    1.0000 </r>
       <r>   -5.9599    1.0000 </r>
       <r>   -5.9589    1.0000 </r>
       <r>   -5.9580    1.0000 </r>
       <r>   -5.9573    1.0000 </r>
       <r>   -5.9567    1.0000 </r>
       <r>   -5.9562    1.0000 </r>
       <r>   -5.9398    1.0000 </r>
       <r>   -5.9393    1.0000 </r>
       <r>   -5.9388    1.0000 </r>
       <r>   -5.9372    1.0000 </r>
       <r>   -5.9362    1.0000 </r>
       <r>   -5.9362    1.0000 </r>
       <r>   -5.8608    1.0000 </r>
       <r>   -5.8588    1.0000 </r>
       <r>   -5.8346    1.0000 </r>
       <r>   -5.8339    1.0000 </r>
       <r>   -5.8337    1.0000 </r>
       <r>   -5.8325    1.0000 </r>
       <r>   -5.8321    1.0000 </r>
       <r>   -5.8317    1.0000 </r>
       <r>   -5.7926    1.0000 </r>
       <r>   -5.7925    1.0000 </r>
       <r>   -5.7904    1.0000 </r>
       <r>   -5.7902    1.0000 </r>
       <r>   -5.7765    1.0000 </r>
       <r>   -5.7758    1.0000 </r>
       <r>   -5.7753    1.0000 </r>
       <r>   -5.7740    1.0000 </r>
       <r>   -5.7733    1.0000 </r>
       <r>   -5.7728    1.0000 </r>
       <r>   -5.3947    1.0000 </r>
       <r>   -5.3939    1.0000 </r>
       <r>   -5.3937    1.0000 </r>
       <r>   -5.3936    1.0000 </r>
       <r>   -5.3935    1.0000 </r>
       <r>   -5.3924    1.0000 </r>
       <r>   -1.9195    1.0000 </r>
       <r>   -1.9188    1.0000 </r>
       <r>   -1.9181    1.0000 </r>
       <r>   -1.9171    1.0000 </r>
       <r>   -1.9143    1.0000 </r>
       <r>   -1.9110    1.0000 </r>
       <r>   -0.5698    1.0000 </r>
       <r>   -0.5656    1.0000 </r>
       <r>    0.0826    1.0000 </r>
       <r>    0.0881    1.0000 </r>
[...]
       <r>   -5.8192    1.0000 </r>
       <r>   -5.8190    1.0000 </r>
       <r>   -5.8114    1.0000 </r>
       <r>   -5.8113    1.0000 </r>
       <r>   -5.7910    1.0000 </r>
       <r>   -5.7902    1.0000 </r>
       <r>   -5.7897    1.0000 </r>
       <r>   -5.7890    1.0000 </r>
       <r>   -5.7866    1.0000 </r>
       <r>   -5.7860    1.0000 </r>
       <r>   -5.7779    1.0000 </r>
       <r>   -5.7775    1.0000 </r>
       <r>   -5.7442    1.0000 </r>
       <r>   -5.7438    1.0000 </r>
       <r>   -5.6619    1.0000 </r>
       <r>   -5.6614    1.0000 </r>
       <r>   -5.3777    1.0000 </r>
       <r>   -5.3773    1.0000 </r>
       <r>   -5.2672    1.0000 </r>
       <r>   -5.2672    1.0000 </r>
       <r>   -1.9844    1.0000 </r>
       <r>   -1.9827    1.0000 </r>
       <r>   -1.8378    1.0000 </r>
       <r>   -1.8374    1.0000 </r>
       <r>   -1.1459    1.0000 </r>
       <r>   -1.1458    1.0000 </r>
       <r>   -0.7214    1.0000 </r>
       <r>   -0.7192    1.0000 </r>
       <r>   -0.3257    1.0000 </r>
       <r>   -0.3247    1.0000 </r>
       <r>   -0.2684    1.0000 </r>
       <r>   -0.2656    1.0000 </r>
       <r>    0.3884    1.0000 </r>
       <r>    0.3901    1.0000 </r>
       <r>    0.4541    1.0000 </r>
       <r>    0.4576    1.0000 </r>
       <r>    0.8945    1.0000 </r>
       <r>    0.8948    1.0000 </r>
       <r>    0.9595    1.0000 </r>
       <r>    0.9601    1.0000 </r>
       <r>    1.2484    1.0000 </r>
       <r>    1.2501    1.0000 </r>
       <r>    1.4504    1.0000 </r>
       <r>    1.4525    1.0000 </r>
       <r>    5.2075    0.0000 </r>
       <r>    5.2076    0.0000 </r>
       <r>    5.2669    0.0000 </r>
       <r>    5.2670    0.0000 </r>
       <r>    5.5293    0.0000 </r>
       <r>    5.5297    0.0000 </r>
       <r>    5.7079    0.0000 </r>
       <r>    5.7079    0.0000 </r>
       <r>    6.0380    0.0000 </r>
       <r>    6.0392    0.0000 </r>
       <r>    6.5962    0.0000 </r>
       <r>    6.5962    0.0000 </r>
       <r>    6.9658    0.0000 </r>
       <r>    6.9661    0.0000 </r>
       <r>    7.2019    0.0000 </r>
       <r>    7.2045    0.0000 </r>
       <r>    7.4234    0.0000 </r>
       <r>    7.4241    0.0000 </r>
       <r>    7.5455    0.0000 </r>
       <r>    7.5462    0.0000 </r>
       <r>    7.5859    0.0000 </r>
       <r>    7.5866    0.0000 </r>
       <r>    7.9005    0.0000 </r>
       <r>    7.9029    0.0000 </r>
       <r>    8.2683    0.0000 </r>
       <r>    8.2699    0.0000 </r>
       <r>    8.5281    0.0000 </r>
       <r>    8.5285    0.0000 </r>
       <r>    9.0240    0.0000 </r>
       <r>    9.0255    0.0000 </r>
       <r>    9.3061    0.0000 </r>
       <r>    9.3063    0.0000 </r>
       <r>    9.6023    0.0000 </r>
       <r>    9.6027    0.0000 </r>
       <r>    9.9525    0.0000 </r>
       <r>    9.9529    0.0000 </r>
       <r>   10.1016    0.0000 </r>
       <r>   10.1034    0.0000 </r>
       <r>   10.7920    0.0000 </r>
       <r>   10.7924    0.0000 </r>
      </set>
     </set>
    </set>
   </array>
  </eigenvalues>
  <separator name="orbital magnetization" >
   <v name="MAGDIPOLOUT">      0.00000000      0.00000000      0.00000000</v>
  </separator>
  <dos>
   <i name="efermi">      2.23937794 </i>
   <total>
    <array>
     <dimension dim="1">gridpoints</dimension>
     <dimension dim="2">spin</dimension>
     <field>energy</field>
     <field>total</field>
     <field>integrated</field>
     <set>
      <set comment="spin 1">
       <r>   -10.0401     0.0000     0.0000 </r>
       <r>    -9.9644     0.0000     0.0000 </r>
       <r>    -9.8887     0.0000     0.0000 </r>
       <r>    -9.8131     0.0000     0.0000 </r>
       <r>    -9.7374     0.0000     0.0000 </r>
       <r>    -9.6617     0.0000     0.0000 </r>
       <r>    -9.5860     0.0000     0.0000 </r>
       <r>    -9.5103     0.0000     0.0000 </r>
       <r>    -9.4346     0.0000     0.0000 </r>
       <r>    -9.3590     0.0000     0.0000 </r>
       <r>    -9.2833     0.0000     0.0000 </r>
       <r>    -9.2076     0.0000     0.0000 </r>
       <r>    -9.1319     0.0000     0.0000 </r>
       <r>    -9.0562     0.0000     0.0000 </r>
       <r>    -8.9806     0.7237     0.0548 </r>
       <r>    -8.9049     5.7959     0.4934 </r>
       <r>    -8.8292     7.3387     1.0728 </r>
       <r>    -8.7535    12.4452     2.0166 </r>
       <r>    -8.6778    17.5673     3.3466 </r>
       <r>    -8.6021    37.7020     6.2000 </r>
       <r>    -8.5265    71.1832    11.6037 </r>
       <r>    -8.4508    57.3404    16.0000 </r>
       <r>    -8.3751     0.0000    16.0000 </r>
       <r>    -8.2994     0.0000    16.0000 </r>
       <r>    -8.2237     0.0000    16.0000 </r>
       <r>    -8.1480     0.0000    16.0000 </r>
       <r>    -8.0724     0.0000    16.0000 </r>
       <r>    -7.9967     0.0000    16.0000 </r>
       <r>    -7.9210     0.0000    16.0000 </r>
       <r>    -7.8453     0.0000    16.0000 </r>
       <r>    -7.7696     0.0000    16.0000 </r>
       <r>    -7.6940     0.0000    16.0000 </r>
       <r>    -7.6183     0.0000    16.0000 </r>
       <r>    -7.5426     0.0000    16.0000 </r>
       <r>    -7.4669     0.0000    16.0000 </r>
       <r>    -7.3912     0.0000    16.0000 </r>
       <r>    -7.3155     0.0000    16.0000 </r>
       <r>    -7.2399     0.0000    16.0000 </r>
       <r>    -7.1642     0.0000    16.0000 </r>
       <r>    -7.0885     0.0000    16.0000 </r>
       <r>    -7.0128     0.0000    16.0000 </r>
       <r>    -6.9371     0.0000    16.0000 </r>
       <r>    -6.8614     0.0000    16.0000 </r>
       <r>    -6.7858     0.0000    16.0000 </r>
       <r>    -6.7101     0.0000    16.0000 </r>
       <r>    -6.6344     0.0000    16.0000 </r>
       <r>    -6.5587     0.0000    16.0000 </r>
       <r>    -6.4830     0.0000    16.0000 </r>
       <r>    -6.4073     0.0000    16.0000 </r>
       <r>    -6.3317     0.0000    16.0000 </r>
       <r>    -6.2560     0.0000    16.0000 </r>
       <r>    -6.1803     0.0000    16.0000 </r>
       <r>    -6.1046     0.0000    16.0000 </r>
       <r>    -6.0289    16.7866    17.2705 </r>
       <r>    -5.9533   246.6589    36.0496 </r>
       <r>    -5.8776   179.2828    49.9913 </r>
       <r>    -5.8019   162.6980    62.3200 </r>
       <r>    -5.7262   266.3137    82.8135 </r>
       <r>    -5.6505    12.9907    83.7980 </r>
       <r>    -5.5748    16.6113    85.0702 </r>
       <r>    -5.4992    20.9452    86.6554 </r>
       <r>    -5.4235    29.8677    88.9857 </r>
       <r>    -5.3478    38.0309    91.9511 </r>
       <r>    -5.2721    38.6447    94.9317 </r>
       <r>    -5.1964    13.6330    96.0000 </r>
       <r>    -5.1207     0.0000    96.0000 </r>
       <r>    -5.0451     0.0000    96.0000 </r>
       <r>    -4.9694     0.0000    96.0000 </r>
       <r>    -4.8937     0.0000    96.0000 </r>
       <r>    -4.8180     0.0000    96.0000 </r>
       <r>    -4.7423     0.0000    96.0000 </r>
       <r>    -4.6667     0.0000    96.0000 </r>
       <r>    -4.5910     0.0000    96.0000 </r>
       <r>    -4.5153     0.0000    96.0000 </r>
       <r>    -4.4396     0.0000    96.0000 </r>
       <r>    -4.3639     0.0000    96.0000 </r>
       <r>    -4.2882     0.0000    96.0000 </r>
       <r>    -4.2126     0.0000    96.0000 </r>
       <r>    -4.1369     0.0000    96.0000 </r>
       <r>    -4.0612     0.0000    96.0000 </r>
       <r>    -3.9855     0.0000    96.0000 </r>
       <r>    -3.9098     0.0000    96.0000 </r>
       <r>    -3.8341     0.0000    96.0000 </r>
       <r>    -3.7585     0.0000    96.0000 </r>
       <r>    -3.6828     0.0000    96.0000 </r>
       <r>    -3.6071     0.0000    96.0000 </r>
       <r>    -3.5314     0.0000    96.0000 </r>
       <r>    -3.4557     0.0000    96.0000 </r>
       <r>    -3.3800     0.0000    96.0000 </r>
       <r>    -3.3044     0.0000    96.0000 </r>
       <r>    -3.2287     0.0000    96.0000 </r>
       <r>    -3.1530     0.0000    96.0000 </r>
       <r>    -3.0773     0.0000    96.0000 </r>
       <r>    -3.0016     0.0000    96.0000 </r>
       <r>    -2.9260     0.0000    96.0000 </r>
       <r>    -2.8503     0.0000    96.0000 </r>
       <r>    -2.7746     0.0000    96.0000 </r>
       <r>    -2.6989     0.0000    96.0000 </r>
       <r>    -2.6232     0.0000    96.0000 </r>
       <r>    -2.5475     0.0000    96.0000 </r>
       <r>    -2.4719     0.0000    96.0000 </r>
       <r>    -2.3962     0.0000    96.0000 </r>
       <r>    -2.3205     0.0000    96.0000 </r>
       <r>    -2.2448     0.4891    96.0370 </r>
       <r>    -2.1691     4.5760    96.3834 </r>
       <r>    -2.0934     9.8428    97.1283 </r>
       <r>    -2.0178    32.7890    99.6100 </r>
       <r>    -1.9421    36.4735   102.3868 </r>
       <r>    -1.8664    18.6891   103.8034 </r>
       <r>    -1.7907     9.6228   104.5343 </r>
       <r>    -1.7150    10.9243   105.3611 </r>
       <r>    -1.6394     6.1716   105.8282 </r>
       <r>    -1.5637    11.0609   106.6992 </r>
       <r>    -1.4880     4.3419   107.0278 </r>
       <r>    -1.4123     5.2181   107.4227 </r>
       <r>    -1.3366     4.5009   107.7686 </r>
       <r>    -1.2609     6.6056   108.2685 </r>
       <r>    -1.1853     2.9350   108.4906 </r>
       <r>    -1.1096     5.8716   108.9352 </r>
       <r>    -1.0339     0.0077   108.9358 </r>
       <r>    -0.9582     5.4255   109.3464 </r>
       <r>    -0.8825     2.0689   109.5362 </r>
       <r>    -0.8068     0.6383   109.6019 </r>
       <r>    -0.7312     0.1854   109.6159 </r>
       <r>    -0.6555     8.6232   110.2685 </r>
       <r>    -0.5798     0.0324   110.2710 </r>
       <r>    -0.5041     2.8858   110.4894 </r>
       <r>    -0.4284     1.7265   110.6200 </r>
       <r>    -0.3527     3.1291   110.8572 </r>
       <r>    -0.2771    14.6694   111.9674 </r>
       <r>    -0.2014    15.1713   113.1201 </r>
       <r>    -0.1257    19.0119   114.5610 </r>
       <r>    -0.0500     8.9913   115.2453 </r>
       <r>     0.0257     9.1980   115.9417 </r>
       <r>     0.1013    18.4730   117.3612 </r>
       <r>     0.1770    14.7667   118.5126 </r>
       <r>     0.2527    12.7398   119.4768 </r>
       <r>     0.3284     8.3508   120.1541 </r>
       <r>     0.4041    23.6375   121.9447 </r>
       <r>     0.4798    13.0485   122.9423 </r>
       <r>     0.5554    19.6116   124.4276 </r>
       <r>     0.6311    20.9159   126.0723 </r>
       <r>     0.7068    18.4755   127.4723 </r>
       <r>     0.7825    16.5344   128.7237 </r>
       <r>     0.8582    10.0493   129.5690 </r>
       <r>     0.9339    25.2104   131.4769 </r>
       <r>     1.0095     6.1900   132.0406 </r>
       <r>     1.0852    23.5340   133.8217 </r>
       <r>     1.1609    12.4699   134.8212 </r>
       <r>     1.2366    15.9666   136.0296 </r>
       <r>     1.3123    13.4075   137.0485 </r>
       <r>     1.3879    16.5014   138.2974 </r>
       <r>     1.4636    23.5644   140.1166 </r>
       <r>     1.5393     2.9365   140.3797 </r>
       <r>     1.6150    10.5889   141.1810 </r>
       <r>     1.6907    10.3265   141.9654 </r>
       <r>     1.7664     1.9783   142.1219 </r>
       <r>     1.8420    10.7190   142.9438 </r>
       <r>     1.9177     3.7994   143.2315 </r>
       <r>     1.9934     4.8741   143.6004 </r>
       <r>     2.0691     1.4631   143.7130 </r>
       <r>     2.1448     3.3876   143.9693 </r>
       <r>     2.2205     0.3670   144.0000 </r>
       <r>     2.2961     0.0000   144.0000 </r>
       <r>     2.3718     0.0000   144.0000 </r>
       <r>     2.4475     0.0000   144.0000 </r>
       <r>     2.5232     0.0000   144.0000 </r>
       <r>     2.5989     0.0000   144.0000 </r>
       <r>     2.6746     0.0000   144.0000 </r>
       <r>     2.7502     0.0000   144.0000 </r>
       <r>     2.8259     0.0000   144.0000 </r>
       <r>     2.9016     0.1223   144.0093 </r>
       <r>     2.9773     0.0000   144.0093 </r>
       <r>     3.0530     0.0000   144.0093 </r>
       <r>     3.1286     0.0000   144.0093 </r>
       <r>     3.2043     0.0000   144.0093 </r>
       <r>     3.2800     0.0000   144.0093 </r>
       <r>     3.3557     0.0000   144.0093 </r>
       <r>     3.4314     0.0006   144.0093 </r>
       <r>     3.5071     0.9781   144.0833 </r>
       <r>     3.5827     0.0000   144.0833 </r>
       <r>     3.6584     0.1488   144.0946 </r>
       <r>     3.7341     0.5853   144.1389 </r>
       <r>     3.8098     0.0000   144.1389 </r>
       <r>     3.8855     0.0000   144.1389 </r>
       <r>     3.9612     2.6849   144.3421 </r>
       <r>     4.0368     1.6249   144.4694 </r>
       <r>     4.1125     1.4419   144.5785 </r>
       <r>     4.1882     2.5356   144.7752 </r>
       <r>     4.2639     0.0001   144.8056 </r>
       <r>     4.3396     9.3892   145.5162 </r>
       <r>     4.4152     6.4411   146.0512 </r>
       <r>     4.4909     7.0315   146.5833 </r>
       <r>     4.5666     0.0000   146.5833 </r>
       <r>     4.6423     3.6447   146.8592 </r>
       <r>     4.7180     1.1010   146.9444 </r>
       <r>     4.7937     5.7385   147.3787 </r>
       <r>     4.8693    17.5903   148.7511 </r>
       <r>     4.9450    18.4133   150.1992 </r>
       <r>     5.0207    13.7567   151.2800 </r>
       <r>     5.0964    16.7862   152.5505 </r>
       <r>     5.1721     9.8638   153.3477 </r>
       <r>     5.2478     9.9832   154.1691 </r>
       <r>     5.3234    38.8150   157.1067 </r>
       <r>     5.3991    15.8346   158.3053 </r>
       <r>     5.4748     6.7545   158.8168 </r>
       <r>     5.5505     8.6561   159.4719 </r>
       <r>     5.6262     0.0000   159.4722 </r>
       <r>     5.7019     0.8753   159.5385 </r>
       <r>     5.7775     9.3741   160.2479 </r>
       <r>     5.8532    21.7801   161.8984 </r>
       <r>     5.9289     5.6887   162.3495 </r>
       <r>     6.0046    13.3931   163.3631 </r>
       <r>     6.0803     2.9707   163.6415 </r>
       <r>     6.1559     8.8950   164.3147 </r>
       <r>     6.2316     2.4510   164.5285 </r>
       <r>     6.3073     5.8627   164.9722 </r>
       <r>     6.3830     0.0001   164.9722 </r>
       <r>     6.4587     7.3405   165.5278 </r>
       <r>     6.5344     0.8187   165.5897 </r>
       <r>     6.6100    10.7615   166.4042 </r>
       <r>     6.6857    29.7769   168.7216 </r>
       <r>     6.7614     7.9592   169.3800 </r>
       <r>     6.8371    21.5546   171.0114 </r>
       <r>     6.9128    19.4021   172.5370 </r>
       <r>     6.9885     7.7869   173.1296 </r>
       <r>     7.0641     8.4602   173.7701 </r>
       <r>     7.1398    15.0605   174.9446 </r>
       <r>     7.2155    14.4770   176.0402 </r>
       <r>     7.2912     8.9704   176.7411 </r>
       <r>     7.3669    14.3792   177.8540 </r>
       <r>     7.4426     9.4640   178.5835 </r>
       <r>     7.5182    17.5018   179.9090 </r>
       <r>     7.5939    20.8877   181.4912 </r>
       <r>     7.6696    15.4584   182.7070 </r>
       <r>     7.7453    21.1620   184.3174 </r>
       <r>     7.8210    15.1372   185.4630 </r>
       <r>     7.8966    20.4238   187.0777 </r>
       <r>     7.9723     9.9631   187.8441 </r>
       <r>     8.0480    14.1929   188.9183 </r>
       <r>     8.1237     8.0965   189.5387 </r>
       <r>     8.1994    23.8516   191.3439 </r>
       <r>     8.2751    15.6013   192.5370 </r>
       <r>     8.3507     2.0040   192.7423 </r>
       <r>     8.4264     9.0400   193.4265 </r>
       <r>     8.5021     6.8400   193.9442 </r>
       <r>     8.5778     5.8721   194.3889 </r>
       <r>     8.6535     4.1024   194.6994 </r>
       <r>     8.7292    11.6294   195.6113 </r>
       <r>     8.8048     9.6737   196.3435 </r>
       <r>     8.8805     9.7959   197.0848 </r>
       <r>     8.9562     8.9571   197.7876 </r>
       <r>     9.0319    13.6980   198.8243 </r>
       <r>     9.1076    23.4304   200.6327 </r>
       <r>     9.1832    14.5051   201.7534 </r>
       <r>     9.2589     5.8389   202.2197 </r>
       <r>     9.3346    12.4126   203.1667 </r>
       <r>     9.4103     3.6062   203.4396 </r>
       <r>     9.4860     6.4378   203.9300 </r>
       <r>     9.5617     5.4714   204.3441 </r>
       <r>     9.6373    15.9423   205.5509 </r>
       <r>     9.7130     1.3085   205.6775 </r>
       <r>     9.7887     6.0245   206.1335 </r>
       <r>     9.8644    21.6440   207.7716 </r>
       <r>     9.9401    14.2351   208.8785 </r>
       <r>    10.0158    12.4722   209.8289 </r>
       <r>    10.0914     8.1343   210.4725 </r>
       <r>    10.1671     7.4545   211.0664 </r>
       <r>    10.2428    13.7797   212.1165 </r>
       <r>    10.3185    18.6047   213.5246 </r>
       <r>    10.3942    26.6000   215.5378 </r>
       <r>    10.4699    10.0458   216.3177 </r>
       <r>    10.5455    11.5381   217.1909 </r>
       <r>    10.6212    16.7386   218.4688 </r>
       <r>    10.6969    11.5020   219.3989 </r>
       <r>    10.7726    23.0642   221.1446 </r>
       <r>    10.8483    14.8576   222.2851 </r>
       <r>    10.9239    10.5231   223.1257 </r>
       <r>    10.9996     0.0004   223.1297 </r>
       <r>    11.0753     2.9358   223.3518 </r>
       <r>    11.1510     3.6945   223.6315 </r>
       <r>    11.2267     0.0023   223.6483 </r>
       <r>    11.3024     3.1786   223.8889 </r>
       <r>    11.3780     0.0000   223.8889 </r>
       <r>    11.4537     0.0000   223.8889 </r>
       <r>    11.5294     0.5617   223.9314 </r>
       <r>    11.6051     0.0001   223.9445 </r>
       <r>    11.6808     0.7339   224.0000 </r>
       <r>    11.7565     0.0000   224.0000 </r>
       <r>    11.8321     0.0000   224.0000 </r>
       <r>    11.9078     0.0000   224.0000 </r>
       <r>    11.9835     0.0000   224.0000 </r>
       <r>    12.0592     0.0000   224.0000 </r>
       <r>    12.1349     0.0000   224.0000 </r>
       <r>    12.2105     0.0000   224.0000 </r>
       <r>    12.2862     0.0000   224.0000 </r>
       <r>    12.3619     0.0000   224.0000 </r>
       <r>    12.4376     0.0000   224.0000 </r>
       <r>    12.5133     0.0000   224.0000 </r>
       <r>    12.5890     0.0000   224.0000 </r>
       <r>    12.6646     0.0000   224.0000 </r>
      </set>
     </set>
    </array>
   </total>
  </dos>
 </calculation>
 <structure name="finalpos" >
  <crystal>
   <varray name="basis" >
    <v>      -0.00000340       6.48458704       6.48458880 </v>
    <v>       6.48459448       0.00000454       6.48459324 </v>
    <v>       6.48460158       6.48459856       0.00000634 </v>
   </varray>
   <i name="volume">    545.35350099 </i>
   <varray name="rec_basis" >
    <v>      -0.07710592       0.07710588       0.07710588 </v>
    <v>       0.07710579      -0.07710590       0.07710592 </v>
    <v>       0.07710573       0.07710586      -0.07710580 </v>
   </varray>
  </crystal>
  <varray name="positions" >
   <v>       0.00109323       0.00000316       0.99999723 </v>
   <v>       0.50000278       0.00000316       0.99999723 </v>
   <v>       0.00000278       0.50000316       0.99999723 </v>
   <v>       0.50000278       0.50000316       0.99999723 </v>
   <v>       0.00000278       0.00000316       0.49999723 </v>
   <v>       0.50000278       0.00000316       0.49999723 </v>
   <v>       0.00000278       0.50000316       0.49999723 </v>
   <v>       0.50000278       0.50000316       0.49999723 </v>
   <v>       0.37499722       0.37499684       0.37500277 </v>
   <v>       0.87499722       0.37499684       0.37500277 </v>
   <v>       0.37499722       0.87499684       0.37500277 </v>
   <v>       0.87499722       0.87499684       0.37500277 </v>
   <v>       0.37499722       0.37499684       0.87500277 </v>
   <v>       0.87499722       0.37499684       0.87500277 </v>
   <v>       0.37499722       0.87499684       0.87500277 </v>
   <v>       0.87499722       0.87499684       0.87500277 </v>
  </varray>
 </structure>
</modeling>
