nqpoint: 200    
npath: 4      
segment_nqpoint:
- 50
- 50
- 50
- 50
labels:
- [ 'G', 'X' ]
- [ 'X', 'U|K' ]
- [ 'U|K', 'G' ]
- [ 'G', 'L' ]
reciprocal_lattice:
- [  -0.15421184,   0.15421176,   0.15421176 ] # a*
- [   0.15421159,  -0.15421181,   0.15421185 ] # b*
- [   0.15421146,   0.15421172,  -0.15421160 ] # c*
natom: 2      
lattice:
- [    -0.000001700000000,     3.242293520000000,     3.242294400000000 ] # a
- [     3.242297240000000,     0.000002270000000,     3.242296620000000 ] # b
- [     3.242300790000000,     3.242299280000000,     0.000003170000000 ] # c
points:
- symbol: Cd # 1
  coordinates: [  0.000005570000000,  0.000006320000000,  0.999994450000000 ]
  mass: 112.414000
- symbol: Te # 2
  coordinates: [  0.749994430000000,  0.749993680000001,  0.750005549999999 ]
  mass: 127.600000

phonon:
- q-position: [    0.0000000,    0.0000000,    0.0000000 ]
  distance:    0.0000000
  band:
  - # 1
    frequency:   -0.0000472242
  - # 2
    frequency:   -0.0000442709
  - # 3
    frequency:   -0.0000014950
  - # 4
    frequency:    4.2824473818
  - # 5
    frequency:    4.2829719989
  - # 6
    frequency:    4.2835483349

- q-position: [    0.0102041,    0.0000000,    0.0102041 ]
  distance:    0.0031472
  band:
  - # 1
    frequency:    0.0474267905
  - # 2
    frequency:    0.0476678498
  - # 3
    frequency:    0.1045889746
  - # 4
    frequency:    4.2827088892
  - # 5
    frequency:    4.2831435507
  - # 6
    frequency:    4.2837039839

- q-position: [    0.0204082,    0.0000000,    0.0204082 ]
  distance:    0.0062944
  band:
  - # 1
    frequency:    0.0947905016
  - # 2
    frequency:    0.0952232650
  - # 3
    frequency:    0.2090978998
  - # 4
    frequency:    4.2834593767
  - # 5
    frequency:    4.2836560515
  - # 6
    frequency:    4.2842016437

- q-position: [    0.0306122,    0.0000000,    0.0306122 ]
  distance:    0.0094415
  band:
  - # 1
    frequency:    0.1419746583
  - # 2
    frequency:    0.1426073496
  - # 3
    frequency:    0.3134469113
  - # 4
    frequency:    4.2844727361
  - # 5
    frequency:    4.2845268766
  - # 6
    frequency:    4.2852336769

- q-position: [    0.0408163,    0.0000000,    0.0408163 ]
  distance:    0.0125887
  band:
  - # 1
    frequency:    0.1888961824
  - # 2
    frequency:    0.1897290946
  - # 3
    frequency:    0.4175565453
  - # 4
    frequency:    4.2855455798
  - # 5
    frequency:    4.2857333901
  - # 6
    frequency:    4.2869990194

- q-position: [    0.0510204,    0.0000000,    0.0510204 ]
  distance:    0.0157359
  band:
  - # 1
    frequency:    0.2354700467
  - # 2
    frequency:    0.2365009965
  - # 3
    frequency:    0.5213479235
  - # 4
    frequency:    4.2868136854
  - # 5
    frequency:    4.2872541301
  - # 6
    frequency:    4.2893458408

- q-position: [    0.0612245,    0.0000000,    0.0612245 ]
  distance:    0.0188831
  band:
  - # 1
    frequency:    0.2816117577
  - # 2
    frequency:    0.2828371340
  - # 3
    frequency:    0.6247429429
  - # 4
    frequency:    4.2883142243
  - # 5
    frequency:    4.2890985873
  - # 6
    frequency:    4.2921799333

- q-position: [    0.0714286,    0.0000000,    0.0714286 ]
  distance:    0.0220302
  band:
  - # 1
    frequency:    0.3272380077
  - # 2
    frequency:    0.3286530712
  - # 3
    frequency:    0.7276644592
  - # 4
    frequency:    4.2900523070
  - # 5
    frequency:    4.2912558263
  - # 6
    frequency:    4.2954500392

- q-position: [    0.0816327,    0.0000000,    0.0816327 ]
  distance:    0.0251774
  band:
  - # 1
    frequency:    0.3722670587
  - # 2
    frequency:    0.3738660420
  - # 3
    frequency:    0.8300364643
  - # 4
    frequency:    4.2920207716
  - # 5
    frequency:    4.2937139235
  - # 6
    frequency:    4.2991092055

- q-position: [    0.0918367,    0.0000000,    0.0918367 ]
  distance:    0.0283246
  band:
  - # 1
    frequency:    0.4166190677
  - # 2
    frequency:    0.4183952074
  - # 3
    frequency:    0.9317842557
  - # 4
    frequency:    4.2942075457
  - # 5
    frequency:    4.2964598878
  - # 6
    frequency:    4.3031081561

- q-position: [    0.1020408,    0.0000000,    0.1020408 ]
  distance:    0.0314718
  band:
  - # 1
    frequency:    0.4602164005
  - # 2
    frequency:    0.4621619410
  - # 3
    frequency:    1.0328345972
  - # 4
    frequency:    4.2965973692
  - # 5
    frequency:    4.2994796092
  - # 6
    frequency:    4.3073943348

- q-position: [    0.1122449,    0.0000000,    0.1122449 ]
  distance:    0.0346190
  band:
  - # 1
    frequency:    0.5029839453
  - # 2
    frequency:    0.5050901324
  - # 3
    frequency:    1.1331158703
  - # 4
    frequency:    4.2991721255
  - # 5
    frequency:    4.3027579416
  - # 6
    frequency:    4.3119122521

- q-position: [    0.1224490,    0.0000000,    0.1224490 ]
  distance:    0.0377661
  band:
  - # 1
    frequency:    0.5448494301
  - # 2
    frequency:    0.5471065021
  - # 3
    frequency:    1.2325582146
  - # 4
    frequency:    4.3019106803
  - # 5
    frequency:    4.3062788298
  - # 6
    frequency:    4.3166043089

- q-position: [    0.1326531,    0.0000000,    0.1326531 ]
  distance:    0.0409133
  band:
  - # 1
    frequency:    0.5857437453
  - # 2
    frequency:    0.5881409265
  - # 3
    frequency:    1.3310936576
  - # 4
    frequency:    4.3047884283
  - # 5
    frequency:    4.3100254485
  - # 6
    frequency:    4.3214119160

- q-position: [    0.1428571,    0.0000000,    0.1428571 ]
  distance:    0.0440605
  band:
  - # 1
    frequency:    0.6256012695
  - # 2
    frequency:    0.6281267718
  - # 3
    frequency:    1.4286562320
  - # 4
    frequency:    4.3077765635
  - # 5
    frequency:    4.3139803431
  - # 6
    frequency:    4.3262768889

- q-position: [    0.1530612,    0.0000000,    0.1530612 ]
  distance:    0.0472077
  band:
  - # 1
    frequency:    0.6643601977
  - # 2
    frequency:    0.6670012325
  - # 3
    frequency:    1.5251820818
  - # 4
    frequency:    4.3108410316
  - # 5
    frequency:    4.3181255639
  - # 6
    frequency:    4.3311431526

- q-position: [    0.1632653,    0.0000000,    0.1632653 ]
  distance:    0.0503549
  band:
  - # 1
    frequency:    0.7019628696
  - # 2
    frequency:    0.7047056735
  - # 3
    frequency:    1.6206095547
  - # 4
    frequency:    4.3139410997
  - # 5
    frequency:    4.3224427904
  - # 6
    frequency:    4.3359588144

- q-position: [    0.1734694,    0.0000000,    0.1734694 ]
  distance:    0.0535020
  band:
  - # 1
    frequency:    0.7383560936
  - # 2
    frequency:    0.7411859717
  - # 3
    frequency:    1.7148792825
  - # 4
    frequency:    4.3170274829
  - # 5
    frequency:    4.3269134431
  - # 6
    frequency:    4.3406786553

- q-position: [    0.1836735,    0.0000000,    0.1836735 ]
  distance:    0.0566492
  band:
  - # 1
    frequency:    0.7734914643
  - # 2
    frequency:    0.7763928531
  - # 3
    frequency:    1.8079342485
  - # 4
    frequency:    4.3200400331
  - # 5
    frequency:    4.3315187800
  - # 6
    frequency:    4.3452670297

- q-position: [    0.1938776,    0.0000000,    0.1938776 ]
  distance:    0.0597964
  band:
  - # 1
    frequency:    0.8073256679
  - # 2
    frequency:    0.8102822193
  - # 3
    frequency:    1.8997198416
  - # 4
    frequency:    4.3229051399
  - # 5
    frequency:    4.3362399773
  - # 6
    frequency:    4.3497010162

- q-position: [    0.2040816,    0.0000000,    0.2040816 ]
  distance:    0.0629436
  band:
  - # 1
    frequency:    0.8398207715
  - # 2
    frequency:    0.8428154598
  - # 3
    frequency:    1.9901838980
  - # 4
    frequency:    4.3255332951
  - # 5
    frequency:    4.3410581933
  - # 6
    frequency:    4.3539733660

- q-position: [    0.2142857,    0.0000000,    0.2142857 ]
  distance:    0.0660907
  band:
  - # 1
    frequency:    0.8709444893
  - # 2
    frequency:    0.8739597416
  - # 3
    frequency:    2.0792767304
  - # 4
    frequency:    4.3278176939
  - # 5
    frequency:    4.3459546159
  - # 6
    frequency:    4.3580943703

- q-position: [    0.2244898,    0.0000000,    0.2244898 ]
  distance:    0.0692379
  band:
  - # 1
    frequency:    0.9006704211
  - # 2
    frequency:    0.9036882706
  - # 3
    frequency:    2.1669511447
  - # 4
    frequency:    4.3296351413
  - # 5
    frequency:    4.3509104956
  - # 6
    frequency:    4.3620913796

- q-position: [    0.2346939,    0.0000000,    0.2346939 ]
  distance:    0.0723851
  band:
  - # 1
    frequency:    0.9289782557
  - # 2
    frequency:    0.9319805165
  - # 3
    frequency:    2.2531624449
  - # 4
    frequency:    4.3308504220
  - # 5
    frequency:    4.3559071645
  - # 6
    frequency:    4.3660048152

- q-position: [    0.2448980,    0.0000000,    0.2448980 ]
  distance:    0.0755323
  band:
  - # 1
    frequency:    0.9558539325
  - # 2
    frequency:    0.9588223946
  - # 3
    frequency:    2.3378684268
  - # 4
    frequency:    4.3313242069
  - # 5
    frequency:    4.3609260438
  - # 6
    frequency:    4.3698806013

- q-position: [    0.2551020,    0.0000000,    0.2551020 ]
  distance:    0.0786795
  band:
  - # 1
    frequency:    0.9812897542
  - # 2
    frequency:    0.9842063948
  - # 3
    frequency:    2.4210293603
  - # 4
    frequency:    4.3309226663
  - # 5
    frequency:    4.3659486432
  - # 6
    frequency:    4.3737608505

- q-position: [    0.2653061,    0.0000000,    0.2653061 ]
  distance:    0.0818266
  band:
  - # 1
    frequency:    1.0052844442
  - # 2
    frequency:    1.0081316523
  - # 3
    frequency:    2.5026079615
  - # 4
    frequency:    4.3295256114
  - # 5
    frequency:    4.3709565551
  - # 6
    frequency:    4.3776759833

- q-position: [    0.2755102,    0.0000000,    0.2755102 ]
  distance:    0.0849738
  band:
  - # 1
    frequency:    1.0278431410
  - # 2
    frequency:    1.0306039508
  - # 3
    frequency:    2.5825693554
  - # 4
    frequency:    4.3270306027
  - # 5
    frequency:    4.3759314456
  - # 6
    frequency:    4.3816408489

- q-position: [    0.2857143,    0.0000000,    0.2857143 ]
  distance:    0.0881210
  band:
  - # 1
    frequency:    1.0489773243
  - # 2
    frequency:    1.0516356526
  - # 3
    frequency:    2.6608810279
  - # 4
    frequency:    4.3233526858
  - # 5
    frequency:    4.3808550477
  - # 6
    frequency:    4.3856551893

- q-position: [    0.2959184,    0.0000000,    0.2959184 ]
  distance:    0.0912682
  band:
  - # 1
    frequency:    1.0687046662
  - # 2
    frequency:    1.0712455485
  - # 3
    frequency:    2.7375127704
  - # 4
    frequency:    4.3184213486
  - # 5
    frequency:    4.3857091582
  - # 6
    frequency:    4.3897068587

- q-position: [    0.3061224,    0.0000000,    0.3061224 ]
  distance:    0.0944154
  band:
  - # 1
    frequency:    1.0870488035
  - # 2
    frequency:    1.0894586240
  - # 3
    frequency:    2.8124366141
  - # 4
    frequency:    4.3121767081
  - # 5
    frequency:    4.3904756418
  - # 6
    frequency:    4.3937757946

- q-position: [    0.3163265,    0.0000000,    0.3163265 ]
  distance:    0.0975625
  band:
  - # 1
    frequency:    1.1040390272
  - # 2
    frequency:    1.1063057370
  - # 3
    frequency:    2.8856267563
  - # 4
    frequency:    4.3045662355
  - # 5
    frequency:    4.3951364450
  - # 6
    frequency:    4.3978374379

- q-position: [    0.3265306,    0.0000000,    0.3265306 ]
  distance:    0.1007097
  band:
  - # 1
    frequency:    1.1197098871
  - # 2
    frequency:    1.1218232059
  - # 3
    frequency:    2.9570594776
  - # 4
    frequency:    4.2955424663
  - # 5
    frequency:    4.3996736221
  - # 6
    frequency:    4.4018651589

- q-position: [    0.3367347,    0.0000000,    0.3367347 ]
  distance:    0.1038569
  band:
  - # 1
    frequency:    1.1341007115
  - # 2
    frequency:    1.1360523079
  - # 3
    frequency:    3.0267130476
  - # 4
    frequency:    4.2850616195
  - # 5
    frequency:    4.4040693739
  - # 6
    frequency:    4.4058317723

- q-position: [    0.3469388,    0.0000000,    0.3469388 ]
  distance:    0.1070041
  band:
  - # 1
    frequency:    1.1472550429
  - # 2
    frequency:    1.1490386894
  - # 3
    frequency:    3.0945676193
  - # 4
    frequency:    4.2730828719
  - # 5
    frequency:    4.4083061001
  - # 6
    frequency:    4.4097104010

- q-position: [    0.3571429,    0.0000000,    0.3571429 ]
  distance:    0.1101512
  band:
  - # 1
    frequency:    1.1592199933
  - # 2
    frequency:    1.1608316927
  - # 3
    frequency:    3.1606051049
  - # 4
    frequency:    4.2595680469
  - # 5
    frequency:    4.4123664660
  - # 6
    frequency:    4.4134749352

- q-position: [    0.3673469,    0.0000000,    0.3673469 ]
  distance:    0.1132984
  band:
  - # 1
    frequency:    1.1700455251
  - # 2
    frequency:    1.1714836056
  - # 3
    frequency:    3.2248090280
  - # 4
    frequency:    4.2444815456
  - # 5
    frequency:    4.4162334818
  - # 6
    frequency:    4.4171002731

- q-position: [    0.3775510,    0.0000000,    0.3775510 ]
  distance:    0.1164456
  band:
  - # 1
    frequency:    1.1797836649
  - # 2
    frequency:    1.1810488434
  - # 3
    frequency:    3.2871643372
  - # 4
    frequency:    4.2277904217
  - # 5
    frequency:    4.4198905937
  - # 6
    frequency:    4.4205624526

- q-position: [    0.3877551,    0.0000000,    0.3877551 ]
  distance:    0.1195928
  band:
  - # 1
    frequency:    1.1884876607
  - # 2
    frequency:    1.1895830734
  - # 3
    frequency:    3.3476571575
  - # 4
    frequency:    4.2094645606
  - # 5
    frequency:    4.4233217845
  - # 6
    frequency:    4.4238387428

- q-position: [    0.3979592,    0.0000000,    0.3979592 ]
  distance:    0.1227400
  band:
  - # 1
    frequency:    1.1962110939
  - # 2
    frequency:    1.1971422972
  - # 3
    frequency:    3.4062744362
  - # 4
    frequency:    4.1894769740
  - # 5
    frequency:    4.4265116831
  - # 6
    frequency:    4.4269077258

- q-position: [    0.4081633,    0.0000000,    0.4081633 ]
  distance:    0.1258871
  band:
  - # 1
    frequency:    1.2030069595
  - # 2
    frequency:    1.2037819075
  - # 3
    frequency:    3.4630033999
  - # 4
    frequency:    4.1678042790
  - # 5
    frequency:    4.4294456811
  - # 6
    frequency:    4.4297493815

- q-position: [    0.4183673,    0.0000000,    0.4183673 ]
  distance:    0.1290343
  band:
  - # 1
    frequency:    1.2089267291
  - # 2
    frequency:    1.2095557385
  - # 3
    frequency:    3.5178306537
  - # 4
    frequency:    4.1444275249
  - # 5
    frequency:    4.4321100628
  - # 6
    frequency:    4.4323451734

- q-position: [    0.4285714,    0.0000000,    0.4285714 ]
  distance:    0.1321815
  band:
  - # 1
    frequency:    1.2140194071
  - # 2
    frequency:    1.2145151353
  - # 3
    frequency:    3.5707405690
  - # 4
    frequency:    4.1193337242
  - # 5
    frequency:    4.4344921538
  - # 6
    frequency:    4.4346781237

- q-position: [    0.4387755,    0.0000000,    0.4387755 ]
  distance:    0.1353287
  band:
  - # 1
    frequency:    1.2183305890
  - # 2
    frequency:    1.2187080736
  - # 3
    frequency:    3.6217121324
  - # 4
    frequency:    4.0925189154
  - # 5
    frequency:    4.4365804932
  - # 6
    frequency:    4.4367328681

- q-position: [    0.4489796,    0.0000000,    0.4489796 ]
  distance:    0.1384758
  band:
  - # 1
    frequency:    1.2219015154
  - # 2
    frequency:    1.2221783757
  - # 3
    frequency:    3.6707121442
  - # 4
    frequency:    4.0639948757
  - # 5
    frequency:    4.4383650010
  - # 6
    frequency:    4.4384957106

- q-position: [    0.4591837,    0.0000000,    0.4591837 ]
  distance:    0.1416230
  band:
  - # 1
    frequency:    1.2247681191
  - # 2
    frequency:    1.2249650646
  - # 3
    frequency:    3.7176785773
  - # 4
    frequency:    4.0338056761
  - # 5
    frequency:    4.4398370791
  - # 6
    frequency:    4.4399547316

- q-position: [    0.4693878,    0.0000000,    0.4693878 ]
  distance:    0.1447702
  band:
  - # 1
    frequency:    1.2269602555
  - # 2
    frequency:    1.2271017048
  - # 3
    frequency:    3.7624723299
  - # 4
    frequency:    4.0020758482
  - # 5
    frequency:    4.4409896212
  - # 6
    frequency:    4.4410999680

- q-position: [    0.4795918,    0.0000000,    0.4795918 ]
  distance:    0.1479174
  band:
  - # 1
    frequency:    1.2285022782
  - # 2
    frequency:    1.2286146034
  - # 3
    frequency:    3.8046974973
  - # 4
    frequency:    3.9691900426
  - # 5
    frequency:    4.4418169998
  - # 6
    frequency:    4.4419235905

- q-position: [    0.4897959,    0.0000000,    0.4897959 ]
  distance:    0.1510646
  band:
  - # 1
    frequency:    1.2294157547
  - # 2
    frequency:    1.2295191070
  - # 3
    frequency:    3.8426936662
  - # 4
    frequency:    3.9368006768
  - # 5
    frequency:    4.4423151045
  - # 6
    frequency:    4.4424199990

- q-position: [    0.5000000,    0.0000000,    0.5000000 ]
  distance:    0.1542117
  band:
  - # 1
    frequency:    1.2297180296
  - # 2
    frequency:    1.2298203152
  - # 3
    frequency:    3.8642693331
  - # 4
    frequency:    3.9170944744
  - # 5
    frequency:    4.4424814216
  - # 6
    frequency:    4.4425858404

- q-position: [    0.5000000,    0.0000000,    0.5000000 ]
  distance:    0.1542117
  band:
  - # 1
    frequency:    1.2297180296
  - # 2
    frequency:    1.2298203152
  - # 3
    frequency:    3.8642693331
  - # 4
    frequency:    3.9170944744
  - # 5
    frequency:    4.4424814216
  - # 6
    frequency:    4.4425858404

- q-position: [    0.5025510,    0.0051020,    0.5025510 ]
  distance:    0.1553244
  band:
  - # 1
    frequency:    1.2297363884
  - # 2
    frequency:    1.2302781551
  - # 3
    frequency:    3.8641833601
  - # 4
    frequency:    3.9168557964
  - # 5
    frequency:    4.4425064776
  - # 6
    frequency:    4.4427301780

- q-position: [    0.5051020,    0.0102041,    0.5051020 ]
  distance:    0.1564371
  band:
  - # 1
    frequency:    1.2296567279
  - # 2
    frequency:    1.2317843797
  - # 3
    frequency:    3.8639237052
  - # 4
    frequency:    3.9161430128
  - # 5
    frequency:    4.4424753536
  - # 6
    frequency:    4.4432680991

- q-position: [    0.5076531,    0.0153061,    0.5076531 ]
  distance:    0.1575498
  band:
  - # 1
    frequency:    1.2295185478
  - # 2
    frequency:    1.2342934175
  - # 3
    frequency:    3.8634850242
  - # 4
    frequency:    3.9149659768
  - # 5
    frequency:    4.4424096120
  - # 6
    frequency:    4.4441739260

- q-position: [    0.5102041,    0.0204082,    0.5102041 ]
  distance:    0.1586625
  band:
  - # 1
    frequency:    1.2293243261
  - # 2
    frequency:    1.2377927525
  - # 3
    frequency:    3.8628579458
  - # 4
    frequency:    3.9133414570
  - # 5
    frequency:    4.4423156201
  - # 6
    frequency:    4.4454345501

- q-position: [    0.5127551,    0.0255102,    0.5127551 ]
  distance:    0.1597752
  band:
  - # 1
    frequency:    1.2290743246
  - # 2
    frequency:    1.2422682390
  - # 3
    frequency:    3.8620283546
  - # 4
    frequency:    3.9112936872
  - # 5
    frequency:    4.4421942960
  - # 6
    frequency:    4.4470398549

- q-position: [    0.5153061,    0.0306122,    0.5153061 ]
  distance:    0.1608879
  band:
  - # 1
    frequency:    1.2287685528
  - # 2
    frequency:    1.2477022997
  - # 3
    frequency:    3.8609763622
  - # 4
    frequency:    3.9088551741
  - # 5
    frequency:    4.4420459143
  - # 6
    frequency:    4.4489781328

- q-position: [    0.5178571,    0.0357143,    0.5178571 ]
  distance:    0.1620006
  band:
  - # 1
    frequency:    1.2284069539
  - # 2
    frequency:    1.2540739398
  - # 3
    frequency:    3.8596749901
  - # 4
    frequency:    3.9060677523
  - # 5
    frequency:    4.4418706187
  - # 6
    frequency:    4.4512358357

- q-position: [    0.5204082,    0.0408163,    0.5204082 ]
  distance:    0.1631133
  band:
  - # 1
    frequency:    1.2279894409
  - # 2
    frequency:    1.2613589439
  - # 3
    frequency:    3.8580886955
  - # 4
    frequency:    3.9029837702
  - # 5
    frequency:    4.4416685217
  - # 6
    frequency:    4.4537977667

- q-position: [    0.5229592,    0.0459184,    0.5229592 ]
  distance:    0.1642260
  band:
  - # 1
    frequency:    1.2275159062
  - # 2
    frequency:    1.2695301233
  - # 3
    frequency:    3.8561720890
  - # 4
    frequency:    3.8996670695
  - # 5
    frequency:    4.4414397316
  - # 6
    frequency:    4.4566473568

- q-position: [    0.5255102,    0.0510204,    0.5255102 ]
  distance:    0.1653387
  band:
  - # 1
    frequency:    1.2269862250
  - # 2
    frequency:    1.2785575893
  - # 3
    frequency:    3.8538695707
  - # 4
    frequency:    3.8961930470
  - # 5
    frequency:    4.4411843621
  - # 6
    frequency:    4.4597669619

- q-position: [    0.5280612,    0.0561224,    0.5280612 ]
  distance:    0.1664514
  band:
  - # 1
    frequency:    1.2264002568
  - # 2
    frequency:    1.2884090391
  - # 3
    frequency:    3.8511170446
  - # 4
    frequency:    3.8926466468
  - # 5
    frequency:    4.4409025354
  - # 6
    frequency:    4.4631381540

- q-position: [    0.5306122,    0.0612245,    0.5306122 ]
  distance:    0.1675641
  band:
  - # 1
    frequency:    1.2257578463
  - # 2
    frequency:    1.2990500493
  - # 3
    frequency:    3.8478470153
  - # 4
    frequency:    3.8891169913
  - # 5
    frequency:    4.4405943844
  - # 6
    frequency:    4.4667419967

- q-position: [    0.5331633,    0.0663265,    0.5331633 ]
  distance:    0.1686768
  band:
  - # 1
    frequency:    1.2250588240
  - # 2
    frequency:    1.3104443671
  - # 3
    frequency:    3.8439975041
  - # 4
    frequency:    3.8856882175
  - # 5
    frequency:    4.4402600526
  - # 6
    frequency:    4.4705592947

- q-position: [    0.5357143,    0.0714286,    0.5357143 ]
  distance:    0.1697895
  band:
  - # 1
    frequency:    1.2243030060
  - # 2
    frequency:    1.3225541969
  - # 3
    frequency:    3.8395229806
  - # 4
    frequency:    3.8824283274
  - # 5
    frequency:    4.4398996950
  - # 6
    frequency:    4.4745708153

- q-position: [    0.5382653,    0.0765306,    0.5382653 ]
  distance:    0.1709022
  band:
  - # 1
    frequency:    1.2234901951
  - # 2
    frequency:    1.3353404751
  - # 3
    frequency:    3.8344030954
  - # 4
    frequency:    3.8793802699
  - # 5
    frequency:    4.4395134782
  - # 6
    frequency:    4.4787574780

- q-position: [    0.5408163,    0.0816327,    0.5408163 ]
  distance:    0.1720149
  band:
  - # 1
    frequency:    1.2226201804
  - # 2
    frequency:    1.3487631308
  - # 3
    frequency:    3.8286450617
  - # 4
    frequency:    3.8765594042
  - # 5
    frequency:    4.4391015800
  - # 6
    frequency:    4.4831005129

- q-position: [    0.5433673,    0.0867347,    0.5433673 ]
  distance:    0.1731276
  band:
  - # 1
    frequency:    1.2216927382
  - # 2
    frequency:    1.3627813288
  - # 3
    frequency:    3.8222789592
  - # 4
    frequency:    3.8739580727
  - # 5
    frequency:    4.4386641898
  - # 6
    frequency:    4.4875815884

- q-position: [    0.5459184,    0.0918367,    0.5459184 ]
  distance:    0.1742403
  band:
  - # 1
    frequency:    1.2207076319
  - # 2
    frequency:    1.3773536929
  - # 3
    frequency:    3.8153490638
  - # 4
    frequency:    3.8715541754
  - # 5
    frequency:    4.4382015081
  - # 6
    frequency:    4.4921829111

- q-position: [    0.5484694,    0.0969388,    0.5484694 ]
  distance:    0.1753529
  band:
  - # 1
    frequency:    1.2196646126
  - # 2
    frequency:    1.3924385087
  - # 3
    frequency:    3.8079052677
  - # 4
    frequency:    3.8693196798
  - # 5
    frequency:    4.4377137470
  - # 6
    frequency:    4.4968873000

- q-position: [    0.5510204,    0.1020408,    0.5510204 ]
  distance:    0.1764656
  band:
  - # 1
    frequency:    1.2185634190
  - # 2
    frequency:    1.4079939043
  - # 3
    frequency:    3.7999969627
  - # 4
    frequency:    3.8672266889
  - # 5
    frequency:    4.4372011291
  - # 6
    frequency:    4.5016782388

- q-position: [    0.5535714,    0.1071429,    0.5535714 ]
  distance:    0.1775783
  band:
  - # 1
    frequency:    1.2174037785
  - # 2
    frequency:    1.4239780102
  - # 3
    frequency:    3.7916697138
  - # 4
    frequency:    3.8652507391
  - # 5
    frequency:    4.4366638885
  - # 6
    frequency:    4.5065399094

- q-position: [    0.5561224,    0.1122449,    0.5561224 ]
  distance:    0.1786910
  band:
  - # 1
    frequency:    1.2161854069
  - # 2
    frequency:    1.4403490982
  - # 3
    frequency:    3.7829639973
  - # 4
    frequency:    3.8633720470
  - # 5
    frequency:    4.4361022698
  - # 6
    frequency:    4.5114572088

- q-position: [    0.5586735,    0.1173469,    0.5586735 ]
  distance:    0.1798037
  band:
  - # 1
    frequency:    1.2149080092
  - # 2
    frequency:    1.4570656997
  - # 3
    frequency:    3.7739151322
  - # 4
    frequency:    3.8615755774
  - # 5
    frequency:    4.4355165280
  - # 6
    frequency:    4.5164157538

- q-position: [    0.5612245,    0.1224490,    0.5612245 ]
  distance:    0.1809164
  band:
  - # 1
    frequency:    1.2135712794
  - # 2
    frequency:    1.4740867064
  - # 3
    frequency:    3.7645537621
  - # 4
    frequency:    3.8598505695
  - # 5
    frequency:    4.4349069289
  - # 6
    frequency:    4.5214018756

- q-position: [    0.5637755,    0.1275510,    0.5637755 ]
  distance:    0.1820291
  band:
  - # 1
    frequency:    1.2121749019
  - # 2
    frequency:    1.4913714530
  - # 3
    frequency:    3.7549065166
  - # 4
    frequency:    3.8581898911
  - # 5
    frequency:    4.4342737481
  - # 6
    frequency:    4.5264026057

- q-position: [    0.5663265,    0.1326531,    0.5663265 ]
  distance:    0.1831418
  band:
  - # 1
    frequency:    1.2107185509
  - # 2
    frequency:    1.5088797848
  - # 3
    frequency:    3.7449966693
  - # 4
    frequency:    3.8565894005
  - # 5
    frequency:    4.4336172715
  - # 6
    frequency:    4.5314056565

- q-position: [    0.5688776,    0.1377551,    0.5688776 ]
  distance:    0.1842545
  band:
  - # 1
    frequency:    1.2092018916
  - # 2
    frequency:    1.5265721110
  - # 3
    frequency:    3.7348447207
  - # 4
    frequency:    3.8550473889
  - # 5
    frequency:    4.4329377948
  - # 6
    frequency:    4.5363993976

- q-position: [    0.5714286,    0.1428571,    0.5714286 ]
  distance:    0.1853672
  band:
  - # 1
    frequency:    1.2076245800
  - # 2
    frequency:    1.5444094469
  - # 3
    frequency:    3.7244688844
  - # 4
    frequency:    3.8535641185
  - # 5
    frequency:    4.4322356229
  - # 6
    frequency:    4.5413728288

- q-position: [    0.5739796,    0.1479592,    0.5739796 ]
  distance:    0.1864799
  band:
  - # 1
    frequency:    1.2059862640
  - # 2
    frequency:    1.5623534439
  - # 3
    frequency:    3.7138854846
  - # 4
    frequency:    3.8521414519
  - # 5
    frequency:    4.4315110705
  - # 6
    frequency:    4.5463155523

- q-position: [    0.5765306,    0.1530612,    0.5765306 ]
  distance:    0.1875926
  band:
  - # 1
    frequency:    1.2042865833
  - # 2
    frequency:    1.5803664133
  - # 3
    frequency:    3.7031092747
  - # 4
    frequency:    3.8507825582
  - # 5
    frequency:    4.4307644611
  - # 6
    frequency:    4.5512177427

- q-position: [    0.5790816,    0.1581633,    0.5790816 ]
  distance:    0.1887053
  band:
  - # 1
    frequency:    1.2025251705
  - # 2
    frequency:    1.5984113405
  - # 3
    frequency:    3.6921536937
  - # 4
    frequency:    3.8494916807
  - # 5
    frequency:    4.4299961272
  - # 6
    frequency:    4.5560701187

- q-position: [    0.5816327,    0.1632653,    0.5816327 ]
  distance:    0.1898180
  band:
  - # 1
    frequency:    1.2007016507
  - # 2
    frequency:    1.6164518954
  - # 3
    frequency:    3.6810310717
  - # 4
    frequency:    3.8482739527
  - # 5
    frequency:    4.4292064097
  - # 6
    frequency:    4.5608639133

- q-position: [    0.5841837,    0.1683673,    0.5841837 ]
  distance:    0.1909307
  band:
  - # 1
    frequency:    1.1988156430
  - # 2
    frequency:    1.6344524379
  - # 3
    frequency:    3.6697527961
  - # 4
    frequency:    3.8471352492
  - # 5
    frequency:    4.4283956580
  - # 6
    frequency:    4.5655908465

- q-position: [    0.5867347,    0.1734694,    0.5867347 ]
  distance:    0.1920434
  band:
  - # 1
    frequency:    1.1968667603
  - # 2
    frequency:    1.6523780205
  - # 3
    frequency:    3.6583294462
  - # 4
    frequency:    3.8460820673
  - # 5
    frequency:    4.4275642297
  - # 6
    frequency:    4.5702430979

- q-position: [    0.5892857,    0.1785714,    0.5892857 ]
  distance:    0.1931561
  band:
  - # 1
    frequency:    1.1948546101
  - # 2
    frequency:    1.6701943893
  - # 3
    frequency:    3.6467709033
  - # 4
    frequency:    3.8451214270
  - # 5
    frequency:    4.4267124898
  - # 6
    frequency:    4.5748132817

- q-position: [    0.5918367,    0.1836735,    0.5918367 ]
  distance:    0.1942688
  band:
  - # 1
    frequency:    1.1927787949
  - # 2
    frequency:    1.6878679848
  - # 3
    frequency:    3.6350864407
  - # 4
    frequency:    3.8442607870
  - # 5
    frequency:    4.4258408112
  - # 6
    frequency:    4.5792944220

- q-position: [    0.5943878,    0.1887755,    0.5943878 ]
  distance:    0.1953815
  band:
  - # 1
    frequency:    1.1906389129
  - # 2
    frequency:    1.7053659427
  - # 3
    frequency:    3.6232847989
  - # 4
    frequency:    3.8435079722
  - # 5
    frequency:    4.4249495738
  - # 6
    frequency:    4.5836799308

- q-position: [    0.5969388,    0.1938776,    0.5969388 ]
  distance:    0.1964942
  band:
  - # 1
    frequency:    1.1884345584
  - # 2
    frequency:    1.7226560961
  - # 3
    frequency:    3.6113742462
  - # 4
    frequency:    3.8428711087
  - # 5
    frequency:    4.4240391646
  - # 6
    frequency:    4.5879635864

- q-position: [    0.5994898,    0.1989796,    0.5994898 ]