   2   16
1 1
     4.965038490448361    -0.001188115575988    -0.000000000170406
    -0.001188118947265     4.965038488183739    -0.000000000986920
    -0.000000000635885    -0.000000000959547     4.965034093669451
1 2
     0.442567623686601    -0.000013182840086     0.000026788629216
     0.000002204304674    -0.321458378689041    -0.341014640336713
    -0.000011723470405    -0.340970940881438    -0.321468074628902
1 3
    -0.321458052659145     0.000001383613578    -0.341014156542752
    -0.000014144487695     0.442567623674236     0.000025940525227
    -0.340971424615724    -0.000012255777133    -0.321468400646433
1 4
    -0.321454520467196     0.340997849702552    -0.000000585118382
     0.340998817283736    -0.321453870504958     0.000000171504865
    -0.000000435055406    -0.000000135132589     0.442591359659513
1 5
    -0.321483679978114    -0.341004755690834    -0.000000685038334
    -0.341005723292115    -0.321484329954423    -0.000000395378498
    -0.000000802115494    -0.000000687294616     0.442569351188315
1 6
    -0.321459171668283     0.000001016525428     0.341014156558446
    -0.000014244351125     0.442567623698326    -0.000025716685030
     0.340971424615389     0.000013078185630    -0.321467281661385
1 7
     0.442567623708432    -0.000013749641976    -0.000025518500716
     0.000001652121982    -0.321458845661767     0.341014640342623
     0.000012960617010     0.340970940869567    -0.321467607678008
1 8
    -0.078592424579814     0.000021505605376     0.000000000010280
     0.000021505666398    -0.078592424538823     0.000000000019132
     0.000000000018519     0.000000000022028    -0.078601002287173
1 9
     0.023999182606030    -0.025181038594036    -0.025180100511086
    -0.025181120455908     0.023999110530367    -0.025180177471253
    -0.025186018367071    -0.025186013470737     0.024003513084278
1 10
     0.023978476761210     0.025165187770117     0.025195578359231
     0.025165268523461     0.023978583298246    -0.025195565465507
     0.025173146971403    -0.025173053315760     0.023954283732247
1 11
     0.023978559406301     0.025165173042879    -0.025195570945459
     0.025165235101938     0.023978548802001     0.025195607307340
    -0.025173119844286     0.025173094089986     0.023954235583401
1 12
    -1.145144520820333    -1.063407625007452     1.063274635114514
    -1.063410202915404    -1.145145531056264     1.063276428777140
     1.063380522527947     1.063379738640102    -1.145252015370328
1 13
     0.023999099964603    -0.025181107567044     0.025180093125620
    -0.025181168607767     0.023999076046945     0.025180135608810
     0.025185991254953     0.025185972692120     0.024003630209128
1 14
    -1.145696081937077     1.064020773930599    -1.063806816853891
     1.064023399447054    -1.145696527828781     1.063808352456708
    -1.063893301949399     1.063892212556679    -1.145565579156349
1 15
    -1.145699573095835     1.064021397463301     1.063807128392482
     1.064024810266735    -1.145695071026005    -1.063806583661644
     1.063894447047458    -1.063890489809509    -1.145563544800368
1 16
    -1.145141031375741    -1.063404712736412    -1.063274946508763
    -1.063408169658695    -1.145144074973797    -1.063278196556279
    -1.063381666999009    -1.063381460414782    -1.145256960897387
9 1
     0.022131693926634    -0.025468222396508    -0.025445156135342
    -0.025468305176503     0.022131621056463    -0.025445233891806
    -0.025441865972298    -0.025441861023264     0.022178366722576
9 2
     0.022114949826369     0.025450281079694     0.025413656864591
     0.025450362677410     0.022115057459249    -0.025413643830760
     0.025437552744110    -0.025437458128201     0.022128668404560
9 3
     0.022115033264126     0.025450266147648    -0.025413649430310
     0.025450328980240     0.022115022650793     0.025413686135425
    -0.025437525371505     0.025437499323250     0.022128619775259
9 4
    -1.143340521702001    -1.067803085392991     1.067807946849497
    -1.067805673975026    -1.143341536057114     1.067809748267221
     1.067803526843683     1.067802739707997    -1.143429524672739
9 5
     0.022131610430702    -0.025468292080141     0.025445148595340
    -0.025468353832511     0.022131586212770     0.025445191539540
     0.025441838482491     0.025441819734052     0.022178485062200
9 6
    -1.143724171089858     1.068370282291466    -1.068181151642290
     1.068372918510821    -1.143724618843865     1.068182693578366
    -1.068247345601936     1.068246251804720    -1.143638186154768
9 7
    -1.143727676569811     1.068370908353789     1.068181464529282
     1.068374335137790    -1.143723156056818    -1.068180917539614
     1.068248495453880    -1.068244521966805    -1.143636143461862
9 8
    -1.143337017564155    -1.067800160889498    -1.067808259562332
    -1.067803632081902    -1.143340073799037    -1.067811523358799
    -1.067804676075932    -1.067804468619796    -1.143434491068661
9 9
     6.353761920272202    -0.001199681134398     0.000000000078626
    -0.001199684538494     6.353761917985535    -0.000000000952342
    -0.000000000397894    -0.000000000806567     6.353455878967403
9 10
    -0.102741459717209    -0.000005304601545    -0.000002391492220
     0.000013113111004    -0.413746751593557    -0.442040363286207
    -0.000005055683928    -0.442163052361175    -0.413791618839021
9 11
    -0.413746328876004     0.000012696706033    -0.442039736118070
    -0.000005903762853    -0.102741459714621    -0.000003025753056
    -0.442163679660639    -0.000005561490279    -0.413792041559161
9 12
    -0.413936134635340     0.442300182005662    -0.000000193859278
     0.442301437032373    -0.413935291584410     0.000000322052209
    -0.000000013892542     0.000000190612648    -0.102751482720861
9 13
    -0.413860396473521    -0.442239437252593    -0.000000323458578
    -0.442240692107145    -0.413861239409037    -0.000000413181760
    -0.000000489965495    -0.000000525530830    -0.102659581270382
9 14
    -0.413747779690172     0.000012220885643     0.442039736195302
    -0.000006033322596    -0.102741459719605     0.000003116881312
     0.442163679725884     0.000005896324021    -0.413790590740009
9 15
    -0.102741459730323    -0.000006039656192     0.000002908579795
     0.000012397347103    -0.413747356959683     0.442040363320380
     0.000005559357037     0.442163052399634    -0.413791013459780
9 16
    -0.007352261671636     0.000023385933926     0.000000000005989
     0.000023386000284    -0.007352261627061     0.000000000019890
     0.000000000015083     0.000000000020593    -0.007355344984750