  16  16   0   0
  0.3408459E+02  0.9170592E-09  0.9170601E-09  0.9170609E-09  0.5000000E-15
  1.000000000000000E-004
  CAR 
 unknown system                          
     12.66403885    -10.04007939  301      2.23906456      1.00000000
    -10.040  0.0000E+00  0.0000E+00
     -9.964  0.0000E+00  0.0000E+00
     -9.889  0.0000E+00  0.0000E+00
     -9.813  0.0000E+00  0.0000E+00
     -9.737  0.0000E+00  0.0000E+00
     -9.662  0.0000E+00  0.0000E+00
     -9.586  0.0000E+00  0.0000E+00
     -9.510  0.0000E+00  0.0000E+00
     -9.435  0.0000E+00  0.0000E+00
     -9.359  0.0000E+00  0.0000E+00
     -9.283  0.0000E+00  0.0000E+00
     -9.208  0.0000E+00  0.0000E+00
     -9.132  0.0000E+00  0.0000E+00
     -9.056  0.5934E-12  0.4491E-13
     -8.981  0.7237E+00  0.5477E-01
     -8.905  0.5796E+01  0.4934E+00
     -8.829  0.7339E+01  0.1073E+01
     -8.754  0.1244E+02  0.2016E+01
     -8.678  0.1757E+02  0.3346E+01
     -8.602  0.3769E+02  0.6199E+01
     -8.526  0.7119E+02  0.1160E+02
     -8.451  0.5735E+02  0.1600E+02
     -8.375  0.0000E+00  0.1600E+02
     -8.299  0.0000E+00  0.1600E+02
     -8.224  0.0000E+00  0.1600E+02
     -8.148  0.0000E+00  0.1600E+02
     -8.072  0.0000E+00  0.1600E+02
     -7.997  0.0000E+00  0.1600E+02
     -7.921  0.0000E+00  0.1600E+02
     -7.845  0.0000E+00  0.1600E+02
     -7.770  0.0000E+00  0.1600E+02
     -7.694  0.0000E+00  0.1600E+02
     -7.618  0.0000E+00  0.1600E+02
     -7.543  0.0000E+00  0.1600E+02
     -7.467  0.0000E+00  0.1600E+02
     -7.391  0.0000E+00  0.1600E+02
     -7.316  0.0000E+00  0.1600E+02
     -7.240  0.0000E+00  0.1600E+02
     -7.164  0.0000E+00  0.1600E+02
     -7.089  0.0000E+00  0.1600E+02
     -7.013  0.0000E+00  0.1600E+02
     -6.937  0.0000E+00  0.1600E+02
     -6.862  0.0000E+00  0.1600E+02
     -6.786  0.0000E+00  0.1600E+02
     -6.710  0.0000E+00  0.1600E+02
     -6.634  0.0000E+00  0.1600E+02
     -6.559  0.0000E+00  0.1600E+02
     -6.483  0.0000E+00  0.1600E+02
     -6.407  0.0000E+00  0.1600E+02
     -6.332  0.0000E+00  0.1600E+02
     -6.256  0.0000E+00  0.1600E+02
     -6.180  0.0000E+00  0.1600E+02
     -6.105  0.3002E-12  0.1600E+02
     -6.029  0.1670E+02  0.1726E+02
     -5.953  0.2463E+03  0.3602E+02
     -5.878  0.1797E+03  0.4999E+02
     -5.802  0.1624E+03  0.6229E+02
     -5.726  0.2666E+03  0.8281E+02
     -5.651  0.1301E+02  0.8380E+02
     -5.575  0.1659E+02  0.8507E+02
     -5.499  0.2094E+02  0.8665E+02
     -5.424  0.2983E+02  0.8898E+02
     -5.348  0.3800E+02  0.9195E+02
     -5.272  0.3864E+02  0.9493E+02
     -5.197  0.1366E+02  0.9600E+02
     -5.121  0.0000E+00  0.9600E+02
     -5.045  0.0000E+00  0.9600E+02
     -4.969  0.0000E+00  0.9600E+02
     -4.894  0.0000E+00  0.9600E+02
     -4.818  0.0000E+00  0.9600E+02
     -4.742  0.0000E+00  0.9600E+02
     -4.667  0.0000E+00  0.9600E+02
     -4.591  0.0000E+00  0.9600E+02
     -4.515  0.0000E+00  0.9600E+02
     -4.440  0.0000E+00  0.9600E+02
     -4.364  0.0000E+00  0.9600E+02
     -4.288  0.0000E+00  0.9600E+02
     -4.213  0.0000E+00  0.9600E+02
     -4.137  0.0000E+00  0.9600E+02
     -4.061  0.0000E+00  0.9600E+02
     -3.986  0.0000E+00  0.9600E+02
     -3.910  0.0000E+00  0.9600E+02
     -3.834  0.0000E+00  0.9600E+02
     -3.759  0.0000E+00  0.9600E+02
     -3.683  0.0000E+00  0.9600E+02
     -3.607  0.0000E+00  0.9600E+02
     -3.532  0.0000E+00  0.9600E+02
     -3.456  0.0000E+00  0.9600E+02
     -3.380  0.0000E+00  0.9600E+02
     -3.305  0.0000E+00  0.9600E+02
     -3.229  0.0000E+00  0.9600E+02
     -3.153  0.0000E+00  0.9600E+02
     -3.077  0.0000E+00  0.9600E+02
     -3.002  0.0000E+00  0.9600E+02
     -2.926  0.0000E+00  0.9600E+02
     -2.850  0.0000E+00  0.9600E+02
     -2.775  0.0000E+00  0.9600E+02
     -2.699  0.0000E+00  0.9600E+02
     -2.623  0.0000E+00  0.9600E+02
     -2.548  0.0000E+00  0.9600E+02
     -2.472  0.0000E+00  0.9600E+02
     -2.396  0.0000E+00  0.9600E+02
     -2.321  0.1323E-11  0.9600E+02
     -2.245  0.4891E+00  0.9604E+02
     -2.169  0.4546E+01  0.9638E+02
     -2.094  0.9855E+01  0.9713E+02
     -2.018  0.3271E+02  0.9960E+02
     -1.942  0.3650E+02  0.1024E+03
     -1.867  0.1875E+02  0.1038E+03
     -1.791  0.9527E+01  0.1045E+03
     -1.715  0.1102E+02  0.1054E+03
     -1.640  0.6092E+01  0.1058E+03
     -1.564  0.1118E+02  0.1067E+03
     -1.488  0.4346E+01  0.1070E+03
     -1.413  0.5119E+01  0.1074E+03
     -1.337  0.4597E+01  0.1078E+03
     -1.261  0.6606E+01  0.1083E+03
     -1.185  0.2935E+01  0.1085E+03
     -1.110  0.5872E+01  0.1089E+03
     -1.034  0.6979E-02  0.1089E+03
     -0.958  0.5406E+01  0.1093E+03
     -0.883  0.2038E+01  0.1095E+03
     -0.807  0.7239E+00  0.1096E+03
     -0.731  0.1733E+00  0.1096E+03
     -0.656  0.8635E+01  0.1103E+03
     -0.580  0.2981E-01  0.1103E+03
     -0.504  0.2879E+01  0.1105E+03
     -0.429  0.1735E+01  0.1106E+03
     -0.353  0.3041E+01  0.1109E+03
     -0.277  0.1474E+02  0.1120E+03
     -0.202  0.1515E+02  0.1131E+03
     -0.126  0.1904E+02  0.1146E+03
     -0.050  0.8980E+01  0.1152E+03
      0.025  0.9150E+01  0.1159E+03
      0.101  0.1838E+02  0.1174E+03
      0.177  0.1486E+02  0.1185E+03
      0.252  0.1266E+02  0.1195E+03
      0.328  0.8366E+01  0.1202E+03
      0.404  0.2361E+02  0.1219E+03
      0.479  0.1307E+02  0.1229E+03
      0.555  0.1953E+02  0.1244E+03
      0.631  0.2108E+02  0.1261E+03
      0.707  0.1851E+02  0.1275E+03
      0.782  0.1647E+02  0.1287E+03
      0.858  0.9991E+01  0.1296E+03
      0.934  0.2519E+02  0.1315E+03
      1.009  0.6052E+01  0.1320E+03
      1.085  0.2358E+02  0.1338E+03
      1.161  0.1264E+02  0.1348E+03
      1.236  0.1590E+02  0.1360E+03
      1.312  0.1347E+02  0.1370E+03
      1.388  0.1644E+02  0.1383E+03
      1.463  0.2358E+02  0.1401E+03
      1.539  0.2937E+01  0.1404E+03
      1.615  0.1050E+02  0.1412E+03
      1.690  0.1040E+02  0.1420E+03
      1.766  0.1915E+01  0.1421E+03
      1.842  0.1075E+02  0.1429E+03
      1.917  0.3824E+01  0.1432E+03
      1.993  0.4871E+01  0.1436E+03
      2.069  0.1464E+01  0.1437E+03
      2.144  0.3384E+01  0.1440E+03
      2.220  0.3670E+00  0.1440E+03
      2.296  0.0000E+00  0.1440E+03
      2.372  0.0000E+00  0.1440E+03
      2.447  0.0000E+00  0.1440E+03
      2.523  0.0000E+00  0.1440E+03
      2.599  0.0000E+00  0.1440E+03
      2.674  0.0000E+00  0.1440E+03
      2.750  0.0000E+00  0.1440E+03
      2.826  0.7892E-05  0.1440E+03
      2.901  0.1223E+00  0.1440E+03
      2.977  0.0000E+00  0.1440E+03
      3.053  0.0000E+00  0.1440E+03
      3.128  0.0000E+00  0.1440E+03
      3.204  0.0000E+00  0.1440E+03
      3.280  0.0000E+00  0.1440E+03
      3.355  0.0000E+00  0.1440E+03
      3.431  0.5302E-03  0.1440E+03
      3.507  0.9782E+00  0.1441E+03
      3.582  0.0000E+00  0.1441E+03
      3.658  0.1387E+00  0.1441E+03
      3.734  0.5954E+00  0.1441E+03
      3.809  0.0000E+00  0.1441E+03
      3.885  0.3363E-08  0.1441E+03
      3.961  0.2663E+01  0.1443E+03
      4.036  0.1622E+01  0.1445E+03
      4.112  0.1456E+01  0.1446E+03
      4.188  0.2501E+01  0.1448E+03
      4.264  0.9062E-04  0.1448E+03
      4.339  0.9282E+01  0.1455E+03
      4.415  0.6395E+01  0.1460E+03
      4.491  0.7139E+01  0.1466E+03
      4.566  0.4347E-15  0.1466E+03
      4.642  0.3641E+01  0.1469E+03
      4.718  0.1101E+01  0.1469E+03
      4.793  0.5646E+01  0.1474E+03
      4.869  0.1770E+02  0.1487E+03
      4.945  0.1876E+02  0.1502E+03
      5.020  0.1390E+02  0.1513E+03
      5.096  0.1680E+02  0.1525E+03
      5.172  0.9726E+01  0.1533E+03
      5.247  0.1021E+02  0.1542E+03
      5.323  0.3882E+02  0.1571E+03
      5.399  0.1596E+02  0.1583E+03
      5.474  0.6738E+01  0.1588E+03
      5.550  0.8672E+01  0.1595E+03
      5.626  0.0000E+00  0.1595E+03
      5.701  0.8004E+00  0.1595E+03
      5.777  0.9444E+01  0.1602E+03
      5.853  0.2171E+02  0.1619E+03
      5.928  0.5592E+01  0.1623E+03
      6.004  0.1347E+02  0.1634E+03
      6.080  0.2965E+01  0.1636E+03
      6.156  0.8820E+01  0.1643E+03
      6.231  0.2492E+01  0.1645E+03
      6.307  0.5864E+01  0.1650E+03
      6.383  0.5206E-04  0.1650E+03
      6.458  0.7341E+01  0.1655E+03
      6.534  0.7591E+00  0.1656E+03
      6.610  0.1069E+02  0.1664E+03
      6.685  0.3007E+02  0.1687E+03
      6.761  0.7885E+01  0.1694E+03
      6.837  0.2152E+02  0.1710E+03
      6.912  0.1938E+02  0.1725E+03
      6.988  0.7854E+01  0.1731E+03
      7.064  0.8341E+01  0.1738E+03
      7.139  0.1520E+02  0.1749E+03
      7.215  0.1443E+02  0.1760E+03
      7.291  0.8832E+01  0.1767E+03
      7.366  0.1473E+02  0.1779E+03
      7.442  0.9533E+01  0.1786E+03
      7.518  0.1739E+02  0.1799E+03
      7.593  0.2094E+02  0.1815E+03
      7.669  0.1525E+02  0.1827E+03
      7.745  0.2117E+02  0.1843E+03
      7.820  0.1511E+02  0.1854E+03
      7.896  0.2066E+02  0.1871E+03
      7.972  0.9932E+01  0.1878E+03
      8.048  0.1427E+02  0.1889E+03
      8.123  0.7898E+01  0.1895E+03
      8.199  0.2385E+02  0.1913E+03
      8.275  0.1563E+02  0.1925E+03
      8.350  0.2068E+01  0.1927E+03
      8.426  0.9010E+01  0.1934E+03
      8.502  0.6913E+01  0.1939E+03
      8.577  0.5872E+01  0.1944E+03
      8.653  0.3985E+01  0.1947E+03
      8.729  0.1177E+02  0.1956E+03
      8.804  0.9635E+01  0.1963E+03
      8.880  0.9719E+01  0.1971E+03
      8.956  0.9013E+01  0.1978E+03
      9.031  0.1365E+02  0.1988E+03
      9.107  0.2336E+02  0.2006E+03
      9.183  0.1451E+02  0.2018E+03
      9.258  0.5811E+01  0.2022E+03
      9.334  0.1242E+02  0.2032E+03
      9.410  0.3516E+01  0.2034E+03
      9.485  0.6464E+01  0.2039E+03
      9.561  0.5523E+01  0.2043E+03
      9.637  0.1588E+02  0.2055E+03
      9.713  0.1325E+01  0.2057E+03
      9.788  0.6000E+01  0.2061E+03
      9.864  0.2161E+02  0.2078E+03
      9.940  0.1463E+02  0.2089E+03
     10.015  0.1223E+02  0.2098E+03
     10.091  0.8251E+01  0.2105E+03
     10.167  0.7492E+01  0.2111E+03
     10.242  0.1389E+02  0.2121E+03
     10.318  0.1845E+02  0.2135E+03
     10.394  0.2670E+02  0.2155E+03
     10.469  0.1008E+02  0.2163E+03
     10.545  0.1144E+02  0.2172E+03
     10.621  0.1667E+02  0.2185E+03
     10.696  0.1157E+02  0.2194E+03
     10.772  0.2287E+02  0.2211E+03
     10.848  0.1495E+02  0.2223E+03
     10.923  0.1052E+02  0.2231E+03
     10.999  0.3415E-03  0.2231E+03
     11.075  0.2936E+01  0.2234E+03
     11.150  0.3640E+01  0.2236E+03
     11.226  0.1260E-02  0.2236E+03
     11.302  0.3180E+01  0.2239E+03
     11.377  0.0000E+00  0.2239E+03
     11.453  0.0000E+00  0.2239E+03
     11.529  0.5433E+00  0.2239E+03
     11.605  0.1250E-03  0.2239E+03
     11.680  0.7340E+00  0.2240E+03
     11.756  0.0000E+00  0.2240E+03
     11.832  0.0000E+00  0.2240E+03
     11.907  0.0000E+00  0.2240E+03
     11.983  0.0000E+00  0.2240E+03
     12.059  0.0000E+00  0.2240E+03
     12.134  0.0000E+00  0.2240E+03
     12.210  0.0000E+00  0.2240E+03
     12.286  0.0000E+00  0.2240E+03
     12.361  0.0000E+00  0.2240E+03
     12.437  0.0000E+00  0.2240E+03
     12.513  0.0000E+00  0.2240E+03
     12.588  0.0000E+00  0.2240E+03
     12.664  0.0000E+00  0.2240E+03
