       N       E                     dE             d eps       ncg     rms          rms(c)
DAV:   1     0.947060955843E+03    0.94706E+03   -0.69052E+04 25088   0.126E+03
DAV:   2     0.655371275017E+00   -0.94641E+03   -0.91281E+03 28252   0.289E+02
DAV:   3    -0.453634375449E+02   -0.46019E+02   -0.45798E+02 31388   0.639E+01
DAV:   4    -0.459550086204E+02   -0.59157E+00   -0.59149E+00 29736   0.639E+00
DAV:   5    -0.459616159561E+02   -0.66073E-02   -0.66073E-02 31136   0.703E-01    0.153E+01
DAV:   6    -0.440516634157E+02    0.19100E+01   -0.37592E+00 27216   0.951E+00    0.126E+01
DAV:   7    -0.439247455427E+02    0.12692E+00   -0.11921E+00 28952   0.265E+00    0.483E+00
DAV:   8    -0.439174357366E+02    0.73098E-02   -0.11286E-01 27552   0.157E+00    0.146E+00
DAV:   9    -0.439176432603E+02   -0.20752E-03   -0.11462E-02 30156   0.503E-01    0.410E-01
DAV:  10    -0.439173202477E+02    0.32301E-03   -0.19122E-03 28392   0.202E-01    0.148E-01
DAV:  11    -0.439174743032E+02   -0.15406E-03   -0.73802E-04 29456   0.875E-02    0.801E-02
DAV:  12    -0.439174603640E+02    0.13939E-04   -0.61772E-05 29428   0.313E-02    0.585E-02
DAV:  13    -0.439174655314E+02   -0.51674E-05   -0.67397E-05 28896   0.213E-02    0.100E-01
DAV:  14    -0.439174633817E+02    0.21497E-05   -0.16495E-05 27804   0.138E-02    0.229E-02
DAV:  15    -0.439174636218E+02   -0.24008E-06   -0.14383E-06 31024   0.244E-03    0.177E-02
DAV:  16    -0.439174638906E+02   -0.26881E-06   -0.16593E-07 28028   0.138E-03    0.169E-02
DAV:  17    -0.439174643308E+02   -0.44025E-06   -0.16021E-07 28308   0.100E-03    0.893E-03
DAV:  18    -0.439174644232E+02   -0.92386E-07   -0.90236E-09 24136   0.342E-04    0.787E-03
DAV:  19    -0.439174645335E+02   -0.11027E-06   -0.15022E-07 28280   0.833E-04    0.297E-03
DAV:  20    -0.439174645855E+02   -0.51983E-07   -0.30565E-08 28336   0.343E-04    0.135E-03
DAV:  21    -0.439174645689E+02    0.16513E-07   -0.69856E-10 17724   0.871E-05    0.149E-03
DAV:  22    -0.439174645946E+02   -0.25626E-07   -0.39543E-09 16492   0.133E-04    0.858E-04
DAV:  23    -0.439174646217E+02   -0.27150E-07   -0.26498E-09 17640   0.959E-05    0.246E-04
DAV:  24    -0.439174646262E+02   -0.44256E-08   -0.25296E-10 16548   0.386E-05
   1 F= -.43917465E+02 E0= -.43917465E+02  d E =-.431733E-12
