<?xml version="1.0" encoding="ISO-8859-1"?>
<modeling>
 <generator>
  <i name="program" type="string">vasp </i>
  <i name="version" type="string">6.1.2  </i>
  <i name="subversion" type="string">22Jul20 (build Dec 07 2020 09:43:49) complex                          parallel </i>
  <i name="platform" type="string">LinuxIFC </i>
  <i name="date" type="string">2023 08 20 </i>
  <i name="time" type="string">11:38:57 </i>
 </generator>
 <incar>
  <i type="string" name="PREC"> Accurate</i>
  <i type="logical" name="ADDGRID"> T  </i>
  <i name="EDIFF">      0.00000001</i>
  <i name="ENCUT">    600.00000000</i>
  <i type="logical" name="LREAL"> F  </i>
  <i type="int" name="ISMEAR">     0</i>
  <i name="SIGMA">      0.01000000</i>
  <i type="logical" name="LWAVE"> F  </i>
  <i type="logical" name="LCHARG"> F  </i>
  <i type="string" name="GGA"> PS</i>
  <i name="EDIFF">      0.00000001</i>
 </incar>
 <structure name="primitive_cell" >
  <crystal>
   <varray name="basis" >
    <v>      -0.00000340       6.48458704       6.48458880 </v>
    <v>       6.48459448       0.00000454       6.48459324 </v>
    <v>       6.48460158       6.48459856       0.00000634 </v>
   </varray>
   <i name="volume">    545.35350099 </i>
   <varray name="rec_basis" >
    <v>      -0.07710592       0.07710588       0.07710588 </v>
    <v>       0.07710579      -0.07710590       0.07710592 </v>
    <v>       0.07710573       0.07710586      -0.07710580 </v>
   </varray>
  </crystal>
  <varray name="positions" >
   <v>       0.99891234       0.00000316       0.99999723 </v>
   <v>       0.50000278       0.00000316       0.99999723 </v>
   <v>       0.00000278       0.50000316       0.99999723 </v>
   <v>       0.50000278       0.50000316       0.99999723 </v>
   <v>       0.00000278       0.00000316       0.49999723 </v>
   <v>       0.50000278       0.00000316       0.49999723 </v>
   <v>       0.00000278       0.50000316       0.49999723 </v>
   <v>       0.50000278       0.50000316       0.49999723 </v>
   <v>       0.37499722       0.37499684       0.37500277 </v>
   <v>       0.87499722       0.37499684       0.37500277 </v>
   <v>       0.37499722       0.87499684       0.37500277 </v>
   <v>       0.87499722       0.87499684       0.37500277 </v>
   <v>       0.37499722       0.37499684       0.87500277 </v>
   <v>       0.87499722       0.37499684       0.87500277 </v>
   <v>       0.37499722       0.87499684       0.87500277 </v>
   <v>       0.87499722       0.87499684       0.87500277 </v>
  </varray>
 </structure>
 <varray name="primitive_index" >
  <v type="int" >        1 </v>
  <v type="int" >        2 </v>
  <v type="int" >        3 </v>
  <v type="int" >        4 </v>
  <v type="int" >        5 </v>
  <v type="int" >        6 </v>
  <v type="int" >        7 </v>
  <v type="int" >        8 </v>
  <v type="int" >        9 </v>
  <v type="int" >       10 </v>
  <v type="int" >       11 </v>
  <v type="int" >       12 </v>
  <v type="int" >       13 </v>
  <v type="int" >       14 </v>
  <v type="int" >       15 </v>
  <v type="int" >       16 </v>
 </varray>
 <kpoints>
  <generation param="Gamma">
   <v type="int" name="divisions">       6        6        6 </v>
   <v name="usershift">      0.00000000       0.00000000       0.00000000 </v>
   <v name="genvec1">      0.16666667       0.00000000       0.00000000 </v>
   <v name="genvec2">     -0.00000000       0.16666667      -0.00000000 </v>
   <v name="genvec3">      0.00000000       0.00000000       0.16666667 </v>
   <v name="shift">      0.00000000       0.00000000       0.00000000 </v>
  </generation>
  <varray name="kpointlist" >
   <v>       0.00000000       0.00000000       0.00000000 </v>
   <v>       0.16666667      -0.00000000       0.00000000 </v>
   <v>       0.00000000       0.16666667      -0.00000000 </v>
   <v>      -0.00000000       0.00000000       0.16666667 </v>
   <v>       0.16666667       0.16666667       0.16666667 </v>
   <v>       0.33333333      -0.00000000       0.00000000 </v>
   <v>       0.00000000       0.33333333      -0.00000000 </v>
   <v>      -0.00000000       0.00000000       0.33333333 </v>
   <v>       0.33333333       0.33333333       0.33333333 </v>
   <v>       0.50000000      -0.00000000       0.00000000 </v>
   <v>       0.00000000       0.50000000       0.00000000 </v>
   <v>      -0.00000000       0.00000000       0.50000000 </v>
   <v>       0.50000000       0.50000000       0.50000000 </v>
   <v>       0.16666667       0.16666667       0.00000000 </v>
   <v>      -0.00000000       0.16666667       0.16666667 </v>
   <v>       0.16666667       0.00000000       0.16666667 </v>
   <v>       0.33333333       0.16666667       0.00000000 </v>
   <v>       0.00000000       0.33333333       0.16666667 </v>
   <v>       0.16666667       0.00000000       0.33333333 </v>
   <v>       0.16666667       0.16666667      -0.16666667 </v>
   <v>       0.33333333       0.16666667       0.33333333 </v>
   <v>       0.16666667       0.33333333       0.00000000 </v>
   <v>       0.16666667      -0.16666667      -0.16666667 </v>
   <v>       0.33333333       0.33333333       0.16666667 </v>
   <v>      -0.00000000       0.16666667       0.33333333 </v>
   <v>      -0.16666667       0.16666667      -0.16666667 </v>
   <v>       0.16666667       0.33333333       0.33333333 </v>
   <v>       0.33333333      -0.00000000       0.16666667 </v>
   <v>       0.50000000       0.16666667       0.00000000 </v>
   <v>       0.00000000       0.50000000       0.16666667 </v>
   <v>       0.16666667       0.00000000       0.50000000 </v>
   <v>       0.16666667       0.16666667      -0.33333333 </v>
   <v>       0.50000000       0.33333333       0.50000000 </v>
   <v>       0.16666667       0.50000000       0.00000000 </v>
   <v>       0.33333333      -0.16666667      -0.16666667 </v>
   <v>       0.50000000       0.50000000       0.33333333 </v>
   <v>      -0.00000000       0.16666667       0.50000000 </v>
   <v>      -0.16666667       0.33333333      -0.16666667 </v>
   <v>       0.33333333       0.50000000       0.50000000 </v>
   <v>       0.50000000      -0.00000000       0.16666667 </v>
   <v>      -0.33333333       0.16666667      -0.00000000 </v>
   <v>      -0.00000000      -0.33333333       0.16666667 </v>
   <v>       0.16666667      -0.00000000      -0.33333333 </v>
   <v>       0.16666667       0.16666667       0.50000000 </v>
   <v>      -0.33333333       0.50000000      -0.33333333 </v>
   <v>       0.16666667      -0.33333333      -0.00000000 </v>
   <v>       0.50000000      -0.16666667      -0.16666667 </v>
   <v>      -0.33333333      -0.33333333       0.50000000 </v>
   <v>       0.00000000       0.16666667      -0.33333333 </v>
   <v>      -0.16666667       0.50000000      -0.16666667 </v>
   <v>       0.50000000      -0.33333333      -0.33333333 </v>
   <v>      -0.33333333       0.00000000       0.16666667 </v>
   <v>      -0.16666667       0.16666667       0.00000000 </v>
   <v>      -0.00000000      -0.16666667       0.16666667 </v>
   <v>       0.16666667      -0.00000000      -0.16666667 </v>
   <v>       0.16666667       0.16666667       0.33333333 </v>
   <v>      -0.16666667      -0.33333333      -0.16666667 </v>
   <v>      -0.33333333      -0.16666667      -0.16666667 </v>
   <v>       0.33333333       0.33333333       0.00000000 </v>
   <v>      -0.00000000       0.33333333       0.33333333 </v>
   <v>       0.33333333       0.00000000       0.33333333 </v>
   <v>       0.50000000       0.33333333       0.00000000 </v>
   <v>      -0.00000000       0.50000000       0.33333333 </v>
   <v>       0.33333333      -0.00000000       0.50000000 </v>
   <v>       0.33333333       0.33333333      -0.16666667 </v>
   <v>       0.50000000       0.16666667       0.50000000 </v>
   <v>       0.33333333       0.50000000       0.00000000 </v>
   <v>       0.16666667      -0.33333333      -0.33333333 </v>
   <v>       0.50000000       0.50000000       0.16666667 </v>
   <v>      -0.00000000       0.33333333       0.50000000 </v>
   <v>      -0.33333333       0.16666667      -0.33333333 </v>
   <v>       0.16666667       0.50000000       0.50000000 </v>
   <v>       0.50000000      -0.00000000       0.33333333 </v>
   <v>      -0.33333333       0.33333333       0.00000000 </v>
   <v>      -0.00000000      -0.33333333       0.33333333 </v>
   <v>       0.33333333      -0.00000000      -0.33333333 </v>
   <v>       0.33333333       0.33333333      -0.33333333 </v>
   <v>      -0.33333333       0.33333333      -0.33333333 </v>
   <v>       0.33333333      -0.33333333      -0.33333333 </v>
   <v>       0.50000000       0.50000000       0.00000000 </v>
   <v>      -0.00000000       0.50000000       0.50000000 </v>
   <v>       0.50000000      -0.00000000       0.50000000 </v>
   <v>       0.50000000       0.33333333       0.16666667 </v>
   <v>       0.16666667       0.50000000       0.33333333 </v>
   <v>       0.33333333       0.16666667       0.50000000 </v>
   <v>       0.33333333       0.16666667      -0.16666667 </v>
   <v>       0.50000000       0.16666667       0.33333333 </v>
   <v>       0.16666667      -0.33333333      -0.16666667 </v>
   <v>       0.16666667       0.33333333      -0.16666667 </v>
   <v>       0.16666667      -0.16666667      -0.33333333 </v>
   <v>       0.33333333       0.50000000       0.16666667 </v>
   <v>      -0.16666667       0.16666667      -0.33333333 </v>
   <v>      -0.33333333       0.16666667      -0.16666667 </v>
   <v>       0.16666667       0.33333333       0.50000000 </v>
   <v>      -0.33333333       0.33333333       0.16666667 </v>
   <v>       0.16666667      -0.33333333       0.33333333 </v>
   <v>       0.33333333       0.16666667      -0.33333333 </v>
   <v>      -0.33333333       0.33333333       0.50000000 </v>
   <v>       0.16666667       0.50000000      -0.16666667 </v>
   <v>       0.33333333      -0.16666667      -0.33333333 </v>
   <v>       0.50000000      -0.33333333       0.33333333 </v>
   <v>      -0.16666667       0.16666667       0.50000000 </v>
   <v>      -0.33333333       0.33333333      -0.16666667 </v>
   <v>       0.33333333       0.50000000      -0.33333333 </v>
   <v>       0.50000000      -0.16666667       0.16666667 </v>
   <v>      -0.16666667      -0.33333333       0.33333333 </v>
   <v>      -0.33333333       0.50000000       0.16666667 </v>
   <v>       0.16666667      -0.33333333       0.50000000 </v>
   <v>       0.50000000       0.16666667      -0.33333333 </v>
   <v>       0.50000000       0.33333333      -0.16666667 </v>
   <v>      -0.33333333       0.16666667       0.50000000 </v>
   <v>       0.16666667       0.50000000      -0.33333333 </v>
  </varray>
  <varray name="weights" >
   <v>       0.00462963 </v>
   <v>       0.00925926 </v>
   <v>       0.00925926 </v>
   <v>       0.00925926 </v>
   <v>       0.00925926 </v>
   <v>       0.00925926 </v>
   <v>       0.00925926 </v>
   <v>       0.00925926 </v>
   <v>       0.00925926 </v>
   <v>       0.00462963 </v>
   <v>       0.00462963 </v>
   <v>       0.00462963 </v>
   <v>       0.00462963 </v>
   <v>       0.00925926 </v>
   <v>       0.00925926 </v>
   <v>       0.00925926 </v>
   <v>       0.00925926 </v>
   <v>       0.00925926 </v>
   <v>       0.00925926 </v>
   <v>       0.00925926 </v>
   <v>       0.00925926 </v>
   <v>       0.00925926 </v>
   <v>       0.00925926 </v>
   <v>       0.00925926 </v>
   <v>       0.00925926 </v>
   <v>       0.00925926 </v>
   <v>       0.00925926 </v>
   <v>       0.00925926 </v>
   <v>       0.00925926 </v>
   <v>       0.00925926 </v>
   <v>       0.00925926 </v>
   <v>       0.00925926 </v>
   <v>       0.00925926 </v>
   <v>       0.00925926 </v>
   <v>       0.00925926 </v>
   <v>       0.00925926 </v>
   <v>       0.00925926 </v>
   <v>       0.00925926 </v>
   <v>       0.00925926 </v>
   <v>       0.00925926 </v>
   <v>       0.00925926 </v>
   <v>       0.00925926 </v>
   <v>       0.00925926 </v>
   <v>       0.00925926 </v>
   <v>       0.00925926 </v>
   <v>       0.00925926 </v>
   <v>       0.00925926 </v>
   <v>       0.00925926 </v>
   <v>       0.00925926 </v>
   <v>       0.00925926 </v>
   <v>       0.00925926 </v>
   <v>       0.00925926 </v>
   <v>       0.00925926 </v>
   <v>       0.00925926 </v>
   <v>       0.00925926 </v>
   <v>       0.00925926 </v>
   <v>       0.00925926 </v>
   <v>       0.00925926 </v>
   <v>       0.00925926 </v>
   <v>       0.00925926 </v>
   <v>       0.00925926 </v>
   <v>       0.00925926 </v>
   <v>       0.00925926 </v>
   <v>       0.00925926 </v>
   <v>       0.00925926 </v>
   <v>       0.00925926 </v>
   <v>       0.00925926 </v>
   <v>       0.00925926 </v>
   <v>       0.00925926 </v>
   <v>       0.00925926 </v>
   <v>       0.00925926 </v>
   <v>       0.00925926 </v>
   <v>       0.00925926 </v>
   <v>       0.00925926 </v>
   <v>       0.00925926 </v>
   <v>       0.00925926 </v>
   <v>       0.00925926 </v>
   <v>       0.00925926 </v>
   <v>       0.00925926 </v>
   <v>       0.00462963 </v>
   <v>       0.00462963 </v>
   <v>       0.00462963 </v>
   <v>       0.00925926 </v>
   <v>       0.00925926 </v>
   <v>       0.00925926 </v>
   <v>       0.00925926 </v>
   <v>       0.00925926 </v>
   <v>       0.00925926 </v>
   <v>       0.00925926 </v>
   <v>       0.00925926 </v>
   <v>       0.00925926 </v>
   <v>       0.00925926 </v>
   <v>       0.00925926 </v>
   <v>       0.00925926 </v>
   <v>       0.00925926 </v>
   <v>       0.00925926 </v>
   <v>       0.00925926 </v>
   <v>       0.00925926 </v>
   <v>       0.00925926 </v>
   <v>       0.00925926 </v>
   <v>       0.00925926 </v>
   <v>       0.00925926 </v>
   <v>       0.00925926 </v>
   <v>       0.00925926 </v>
   <v>       0.00925926 </v>
   <v>       0.00925926 </v>
   <v>       0.00925926 </v>
   <v>       0.00925926 </v>
   <v>       0.00925926 </v>
   <v>       0.00925926 </v>
   <v>       0.00925926 </v>
   <v>       0.00925926 </v>
  </varray>
 </kpoints>
 <parameters>
  <separator name="general" >
   <i type="string" name="SYSTEM">unknown system</i>
   <i type="logical" name="LCOMPAT"> F  </i>
  </separator>
  <separator name="electronic" >
   <i type="string" name="PREC">accura</i>
   <i name="ENMAX">    600.00000000</i>
   <i name="ENAUG">    456.10600000</i>
   <i name="EDIFF">      0.00000001</i>
   <i type="int" name="IALGO">    38</i>
   <i type="int" name="IWAVPR">    10</i>
   <i type="int" name="NBANDS">   112</i>
   <i type="int" name="NBANDSLOW">    -1</i>
   <i type="int" name="NBANDSHIGH">    -1</i>
   <i name="NELECT">    144.00000000</i>
   <i type="int" name="TURBO">     0</i>
   <i type="int" name="IRESTART">     0</i>
   <i type="int" name="NREBOOT">     0</i>
   <i type="int" name="NMIN">     0</i>
   <i name="EREF">      0.00000000</i>
   <separator name="electronic smearing" >
    <i type="int" name="ISMEAR">     0</i>
    <i name="SIGMA">      0.01000000</i>
    <i name="KSPACING">      0.50000000</i>
    <i type="logical" name="KGAMMA"> T  </i>
    <i type="logical" name="KBLOWUP"> T  </i>
   </separator>
   <separator name="electronic projectors" >
    <i type="logical" name="LREAL"> F  </i>
    <v name="ROPT">      0.00000000      0.00000000</v>
    <i type="int" name="LMAXPAW">  -100</i>
    <i type="int" name="LMAXMIX">     2</i>
    <i type="logical" name="NLSPLINE"> F  </i>
   </separator>
   <separator name="electronic startup" >
    <i type="int" name="ISTART">     0</i>
    <i type="int" name="ICHARG">     2</i>
    <i type="int" name="INIWAV">     1</i>
   </separator>
   <separator name="electronic spin" >
    <i type="int" name="ISPIN">     1</i>
    <i type="logical" name="LNONCOLLINEAR"> F  </i>
    <v name="MAGMOM">      1.00000000      1.00000000      1.00000000      1.00000000      1.00000000      1.00000000      1.00000000      1.00000000      1.00000000      1.00000000      1.00000000      1.00000000      1.00000000      1.00000000      1.00000000      1.00000000</v>
    <i name="NUPDOWN">     -1.00000000</i>
    <i type="logical" name="LSORBIT"> F  </i>
    <v name="SAXIS">      0.00000000      0.00000000      1.00000000</v>
    <i type="logical" name="LSPIRAL"> F  </i>
    <v name="QSPIRAL">      0.00000000      0.00000000      0.00000000</v>
    <i type="logical" name="LZEROZ"> F  </i>
   </separator>
   <separator name="electronic exchange-correlation" >
    <i type="logical" name="LASPH"> F  </i>
    <i type="logical" name="LMETAGGA"> F  </i>
   </separator>
   <separator name="electronic convergence" >
    <i type="int" name="NELM">    60</i>
    <i type="int" name="NELMDL">     0</i>
    <i type="int" name="NELMIN">     2</i>
    <i name="ENINI">    600.00000000</i>
    <separator name="electronic convergence detail" >
     <i type="logical" name="LDIAG"> T  </i>
     <i type="logical" name="LSUBROT"> F  </i>
     <i name="WEIMIN">      0.00000000</i>
     <i name="EBREAK">      0.00000000</i>
     <i name="DEPER">      0.30000000</i>
     <i type="int" name="NRMM">     4</i>
     <i name="TIME">      0.40000000</i>
    </separator>
   </separator>
   <separator name="electronic mixer" >
    <i name="AMIX">      0.40000000</i>
    <i name="BMIX">      1.00000000</i>
    <i name="AMIN">      0.10000000</i>
    <i name="AMIX_MAG">      1.60000000</i>
    <i name="BMIX_MAG">      1.00000000</i>
    <separator name="electronic mixer details" >
     <i type="int" name="IMIX">     4</i>
     <i type="logical" name="MIXFIRST"> F  </i>
     <i type="int" name="MAXMIX">   -45</i>
     <i name="WC">    100.00000000</i>
     <i type="int" name="INIMIX">     1</i>
     <i type="int" name="MIXPRE">     1</i>
     <i type="int" name="MREMOVE">     5</i>
    </separator>
   </separator>
   <separator name="electronic dipolcorrection" >
    <i type="logical" name="LDIPOL"> F  </i>
    <i type="logical" name="LMONO"> F  </i>
    <i type="int" name="IDIPOL">     0</i>
    <i name="EPSILON">      1.00000000</i>
    <v name="DIPOL">   -100.00000000   -100.00000000   -100.00000000</v>
    <i name="EFIELD">      0.00000000</i>
   </separator>
  </separator>
  <separator name="grids" >
   <i type="int" name="NGX">    80</i>
   <i type="int" name="NGY">    80</i>
   <i type="int" name="NGZ">    80</i>
   <i type="int" name="NGXF">   160</i>
   <i type="int" name="NGYF">   160</i>
   <i type="int" name="NGZF">   160</i>
   <i type="logical" name="ADDGRID"> T  </i>
  </separator>
  <separator name="ionic" >
   <i type="int" name="NSW">     0</i>
   <i type="int" name="IBRION">    -1</i>
   <i type="int" name="MDALGO">     0</i>
   <i type="int" name="ISIF">     2</i>
   <i name="PSTRESS">      0.00000000</i>
   <i name="EDIFFG">      0.00000010</i>
   <i type="int" name="NFREE">     0</i>
   <i name="POTIM">      0.50000000</i>
   <i name="SMASS">     -3.00000000</i>
   <i name="SCALEE">      1.00000000</i>
  </separator>
  <separator name="ionic md" >
   <i name="TEBEG">      0.00010000</i>
   <i name="TEEND">      0.00010000</i>
   <i type="int" name="NBLOCK">     1</i>
   <i type="int" name="KBLOCK">     1</i>
   <i type="int" name="NPACO">   256</i>
   <i name="APACO">     16.00000000</i>
  </separator>
  <separator name="symmetry" >
   <i type="int" name="ISYM">     2</i>
   <i name="SYMPREC">      0.00001000</i>
  </separator>
  <separator name="dos" >
   <i type="int" name="LORBIT">     0</i>
   <v name="RWIGS">     -1.00000000     -1.00000000</v>
   <i type="int" name="NEDOS">   301</i>
   <i name="EMIN">     10.00000000</i>
   <i name="EMAX">    -10.00000000</i>
   <i name="EFERMI">      0.00000000</i>
  </separator>
  <separator name="writing" >
   <i type="int" name="NWRITE">     2</i>
   <i type="logical" name="LWAVE"> F  </i>
   <i type="logical" name="LDOWNSAMPLE"> F  </i>
   <i type="logical" name="LCHARG"> F  </i>
   <i type="logical" name="LPARD"> F  </i>
   <i type="logical" name="LVTOT"> F  </i>
   <i type="logical" name="LVHAR"> F  </i>
   <i type="logical" name="LELF"> F  </i>
   <i type="logical" name="LOPTICS"> F  </i>
   <v name="STM">      0.00000000      0.00000000      0.00000000      0.00000000      0.00000000      0.00000000      0.00000000</v>
  </separator>
  <separator name="performance" >
   <i type="int" name="NPAR">    28</i>
   <i type="int" name="NSIM">     4</i>
   <i type="int" name="NBLK">    -1</i>
   <i type="logical" name="LPLANE"> T  </i>
   <i type="logical" name="LSCALAPACK"> T  </i>
   <i type="logical" name="LSCAAWARE"> F  </i>
   <i type="logical" name="LSCALU"> F  </i>
   <i type="logical" name="LASYNC"> F  </i>
   <i type="logical" name="LORBITALREAL"> F  </i>
  </separator>
  <separator name="miscellaneous" >
   <i type="int" name="IDIOT">     3</i>
   <i type="int" name="PHON_NSTRUCT">    -1</i>
   <i type="logical" name="LMUSIC"> F  </i>
   <v name="POMASS">    112.41100000    127.60000000</v>
   <v name="DARWINR">      0.00000000      0.00000000</v>
   <v name="DARWINV">      1.00000000      1.00000000</v>
   <i type="logical" name="LCORR"> T  </i>
  </separator>
  <i type="logical" name="GGA_COMPAT"> T  </i>
  <i type="logical" name="LBERRY"> F  </i>
  <i type="int" name="ICORELEVEL">     0</i>
  <i type="logical" name="LDAU"> F  </i>
  <i type="int" name="I_CONSTRAINED_M">     0</i>
  <separator name="electronic exchange-correlation" >
   <i type="string" name="GGA">PS</i>
   <i type="int" name="VOSKOWN">     0</i>
   <i type="logical" name="LHFCALC"> F  </i>
   <i type="string" name="PRECFOCK"></i>
   <i type="logical" name="LSYMGRAD"> F  </i>
   <i type="logical" name="LHFONE"> F  </i>
   <i type="logical" name="LRHFCALC"> F  </i>
   <i type="logical" name="LTHOMAS"> F  </i>
   <i type="logical" name="LMODELHF"> F  </i>
   <i type="logical" name="LFOCKACE"> F  </i>
   <i name="ENCUT4O">     -1.00000000</i>
   <i type="int" name="EXXOEP">     0</i>
   <i type="int" name="FOURORBIT">     0</i>
   <i name="AEXX">      0.00000000</i>
   <i name="HFALPHA">      0.00000000</i>
   <i name="MCALPHA">      0.00000000</i>
   <i name="ALDAX">      1.00000000</i>
   <i name="AGGAX">      1.00000000</i>
   <i name="ALDAC">      1.00000000</i>
   <i name="AGGAC">      1.00000000</i>
   <i type="int" name="NKREDX">     1</i>
   <i type="int" name="NKREDY">     1</i>
   <i type="int" name="NKREDZ">     1</i>
   <i type="logical" name="SHIFTRED"> F  </i>
   <i type="logical" name="ODDONLY"> F  </i>
   <i type="logical" name="EVENONLY"> F  </i>
   <i type="int" name="LMAXFOCK">     0</i>
   <i type="int" name="NMAXFOCKAE">     0</i>
   <i type="logical" name="LFOCKAEDFT"> F  </i>
   <i name="HFSCREEN">      0.00000000</i>
   <i name="HFSCREENC">      0.00000000</i>
   <i type="int" name="NBANDSGWLOW">     0</i>
  </separator>
  <separator name="vdW DFT" >
   <i type="logical" name="LUSE_VDW"> F  </i>
   <i name="Zab_VDW">     -0.84910000</i>
   <i name="PARAM1">      0.12340000</i>
   <i name="PARAM2">      1.00000000</i>
   <i name="PARAM3">      0.00000000</i>
  </separator>
  <separator name="model GW" >
   <i type="int" name="MODEL_GW">     0</i>
   <i name="MODEL_EPS0">     20.45075629</i>
   <i name="MODEL_ALPHA">      1.00000000</i>
  </separator>
  <separator name="linear response parameters" >
   <i type="logical" name="LEPSILON"> F  </i>
   <i type="logical" name="LRPA"> F  </i>
   <i type="logical" name="LNABLA"> F  </i>
   <i type="logical" name="LVEL"> F  </i>
   <i type="int" name="KINTER">     0</i>
   <i name="CSHIFT">      0.10000000</i>
   <i name="OMEGAMAX">     -1.00000000</i>
   <i name="DEG_THRESHOLD">      0.00200000</i>
   <i name="RTIME">     -0.10000000</i>
   <i name="WPLASMAI">      0.00000000</i>
   <v name="DFIELD">      0.00000000      0.00000000      0.00000000</v>
   <v name="WPLASMA">      0.00000000      0.00000000      0.00000000      0.00000000      0.00000000      0.00000000      0.00000000      0.00000000      0.00000000</v>
  </separator>
  <separator name="orbital magnetization" >
   <i type="logical" name="NUCIND"> F  </i>
   <v name="MAGPOS">      0.00000000      0.00000000      0.00000000</v>
   <i type="logical" name="LNICSALL"> T  </i>
   <i type="logical" name="ORBITALMAG"> F  </i>
   <i type="logical" name="LMAGBLOCH"> F  </i>
   <i type="logical" name="LCHIMAG"> F  </i>
   <i type="logical" name="LGAUGE"> T  </i>
   <i type="int" name="MAGATOM">     0</i>
   <v name="MAGDIPOL">      0.00000000      0.00000000      0.00000000</v>
   <v name="AVECCONST">      0.00000000      0.00000000      0.00000000</v>
  </separator>
  <separator name="response functions" >
   <i type="logical" name="LFINITE_TEMPERATURE"> F  </i>
   <i type="logical" name="LADDER"> F  </i>
   <i type="logical" name="LRPAFORCE"> F  </i>
   <i type="logical" name="LFXC"> F  </i>
   <i type="logical" name="LHARTREE"> T  </i>
   <i type="int" name="IBSE">     0</i>
   <v type="int" name="KPOINT">    -1     0     0     0</v>
   <i type="logical" name="LTCTC"> F  </i>
   <i type="logical" name="LTCTE"> F  </i>
   <i type="logical" name="LTETE"> F  </i>
   <i type="logical" name="LTRIPLET"> F  </i>
   <i type="logical" name="LFXCEPS"> F  </i>
   <i type="logical" name="LFXHEG"> F  </i>
   <i type="int" name="NATURALO">     2</i>
   <i type="logical" name="LHOLEGF"> F  </i>
   <i type="logical" name="L2ORDER"> F  </i>
   <i type="logical" name="LDMP1"> F  </i>
   <i type="logical" name="LMP2LT"> F  </i>
   <i type="logical" name="LSMP2LT"> F  </i>
   <i type="logical" name="LGWLF"> F  </i>
   <i name="ENCUTGW">     -2.00000000</i>
   <i name="ENCUTGWSOFT">     -2.00000000</i>
   <i name="ENCUTLF">     -1.00000000</i>
   <i type="logical" name="LESF_SPLINES"> F  </i>
   <i type="int" name="LMAXMP2">    -1</i>
   <i name="SCISSOR">      0.00000000</i>
   <i type="int" name="NOMEGA">     0</i>
   <i type="int" name="NOMEGAR">     0</i>
   <i type="int" name="NBANDSGW">    -1</i>
   <i type="int" name="NBANDSO">    -1</i>
   <i type="int" name="NBANDSV">    -1</i>
   <i type="int" name="NELM">     1</i>
   <i type="int" name="NELMHF">     1</i>
   <i type="int" name="DIM">     3</i>
   <i type="int" name="IESPILON">     4</i>
   <i type="int" name="ANTIRES">     0</i>
   <i name="OMEGAMAX">    -30.00000000</i>
   <i name="OMEGAMIN">    -30.00000000</i>
   <i name="OMEGATL">   -200.00000000</i>
   <i type="int" name="OMEGAGRID">     0</i>
   <i name="CSHIFT">     -0.10000000</i>
   <i type="logical" name="LSELFENERGY"> F  </i>
   <i type="logical" name="LSPECTRAL"> F  </i>
   <i type="logical" name="LSPECTRALGW"> F  </i>
   <i type="logical" name="LSINGLES"> F  </i>
   <i type="logical" name="LFERMIGW"> F  </i>
   <i type="logical" name="ODDONLYGW"> F  </i>
   <i type="logical" name="EVENONLYGW"> F  </i>
   <i type="int" name="NKREDLFX">     1</i>
   <i type="int" name="NKREDLFY">     1</i>
   <i type="int" name="NKREDLFZ">     1</i>
   <i type="int" name="MAXMEM">  2800</i>
   <i type="int" name="TELESCOPE">     0</i>
   <i type="int" name="NTAUPAR">    -1</i>
   <i type="int" name="NOMEGAPAR">    -1</i>
   <i name="LAMBDA">      1.00000000</i>
  </separator>
  <separator name="External order field" >
   <i name="OFIELD_KAPPA">      0.00000000</i>
   <v name="OFIELD_K">      0.00000000      0.00000000      0.00000000</v>
   <i name="OFIELD_Q6_NEAR">      0.00000000</i>
   <i name="OFIELD_Q6_FAR">      0.00000000</i>
   <i name="OFIELD_A">      0.00000000</i>
  </separator>
 </parameters>
 <atominfo>
  <atoms>      16 </atoms>
  <types>       2 </types>
  <array name="atoms" >
   <dimension dim="1">ion</dimension>
   <field type="string">element</field>
   <field type="int">atomtype</field>
   <set>
    <rc><c>Cd</c><c>   1</c></rc>
    <rc><c>Cd</c><c>   1</c></rc>
    <rc><c>Cd</c><c>   1</c></rc>
    <rc><c>Cd</c><c>   1</c></rc>
    <rc><c>Cd</c><c>   1</c></rc>
    <rc><c>Cd</c><c>   1</c></rc>
    <rc><c>Cd</c><c>   1</c></rc>
    <rc><c>Cd</c><c>   1</c></rc>
    <rc><c>Te</c><c>   2</c></rc>
    <rc><c>Te</c><c>   2</c></rc>
    <rc><c>Te</c><c>   2</c></rc>
    <rc><c>Te</c><c>   2</c></rc>
    <rc><c>Te</c><c>   2</c></rc>
    <rc><c>Te</c><c>   2</c></rc>
    <rc><c>Te</c><c>   2</c></rc>
    <rc><c>Te</c><c>   2</c></rc>
   </set>
  </array>
  <array name="atomtypes" >
   <dimension dim="1">type</dimension>
   <field type="int">atomspertype</field>
   <field type="string">element</field>
   <field>mass</field>
   <field>valence</field>
   <field type="string">pseudopotential</field>
   <set>
    <rc><c>   8</c><c>Cd</c><c>    112.41100000</c><c>     12.00000000</c><c>  PAW_PBE Cd 06Sep2000                  </c></rc>
    <rc><c>   8</c><c>Te</c><c>    127.60000000</c><c>      6.00000000</c><c>  PAW_PBE Te 08Apr2002                  </c></rc>
   </set>
  </array>
 </atominfo>
 <structure name="initialpos" >
  <crystal>
   <varray name="basis" >
    <v>      -0.00000340       6.48458704       6.48458880 </v>
    <v>       6.48459448       0.00000454       6.48459324 </v>
    <v>       6.48460158       6.48459856       0.00000634 </v>
   </varray>
   <i name="volume">    545.35350099 </i>
   <varray name="rec_basis" >
    <v>      -0.07710592       0.07710588       0.07710588 </v>
    <v>       0.07710579      -0.07710590       0.07710592 </v>
    <v>       0.07710573       0.07710586      -0.07710580 </v>
   </varray>
  </crystal>
  <varray name="positions" >
   <v>       0.99891234       0.00000316       0.99999723 </v>
   <v>       0.50000278       0.00000316       0.99999723 </v>
   <v>       0.00000278       0.50000316       0.99999723 </v>
   <v>       0.50000278       0.50000316       0.99999723 </v>
   <v>       0.00000278       0.00000316       0.49999723 </v>
   <v>       0.50000278       0.00000316       0.49999723 </v>
   <v>       0.00000278       0.50000316       0.49999723 </v>
   <v>       0.50000278       0.50000316       0.49999723 </v>
   <v>       0.37499722       0.37499684       0.37500277 </v>
   <v>       0.87499722       0.37499684       0.37500277 </v>
   <v>       0.37499722       0.87499684       0.37500277 </v>
   <v>       0.87499722       0.87499684       0.37500277 </v>
   <v>       0.37499722       0.37499684       0.87500277 </v>
   <v>       0.87499722       0.37499684       0.87500277 </v>
   <v>       0.37499722       0.87499684       0.87500277 </v>
   <v>       0.87499722       0.87499684       0.87500277 </v>
  </varray>
 </structure>
 <calculation>
  <scstep>
   <time name="dav">   88.32   88.32</time>
   <time name="total">   88.68   88.69</time>
   <energy>
    <i name="alphaZ">    401.02640649 </i>
    <i name="ewald">  -8356.20325456 </i>
    <i name="hartreedc">  -4082.33253988 </i>
    <i name="XCdc">   -165.17682699 </i>
    <i name="pawpsdc">  11219.64626070 </i>
    <i name="pawaedc"> -10652.48958799 </i>
    <i name="eentropy">     -0.00026466 </i>
    <i name="bandstr">    452.92785918 </i>
    <i name="atom">  12129.66290356 </i>
    <i name="e_fr_energy">    947.06095584 </i>
    <i name="e_wo_entrp">    947.06122050 </i>
    <i name="e_0_energy">    947.06108817 </i>
   </energy>
  </scstep>
  <scstep>
   <time name="dav">   96.00   95.93</time>
   <time name="total">   96.00   95.93</time>
   <energy>
    <i name="e_fr_energy">      0.65537128 </i>
    <i name="e_wo_entrp">      0.65537128 </i>
    <i name="e_0_energy">      0.65537128 </i>
   </energy>
  </scstep>
  <scstep>
   <time name="dav">  104.22  104.15</time>
   <time name="total">  104.22  104.15</time>
   <energy>
    <i name="e_fr_energy">    -45.36343754 </i>
    <i name="e_wo_entrp">    -45.36343754 </i>
    <i name="e_0_energy">    -45.36343754 </i>
   </energy>
  </scstep>
  <scstep>
   <time name="dav">   99.73   99.66</time>
   <time name="total">   99.73   99.66</time>
   <energy>
    <i name="e_fr_energy">    -45.95500862 </i>
    <i name="e_wo_entrp">    -45.95500862 </i>
    <i name="e_0_energy">    -45.95500862 </i>
   </energy>
  </scstep>
  <scstep>
   <time name="dav">  103.61  103.53</time>
   <time name="total">  110.62  110.54</time>
   <energy>
    <i name="e_fr_energy">    -45.96161596 </i>
    <i name="e_wo_entrp">    -45.96161596 </i>
    <i name="e_0_energy">    -45.96161596 </i>
   </energy>
  </scstep>
  <scstep>
   <time name="dav">   93.45   93.38</time>
   <time name="total">  100.76  100.69</time>
   <energy>
    <i name="e_fr_energy">    -44.05166342 </i>
    <i name="e_wo_entrp">    -44.05166342 </i>
    <i name="e_0_energy">    -44.05166342 </i>
   </energy>
  </scstep>
  <scstep>
   <time name="dav">   98.05   97.97</time>
   <time name="total">  105.39  105.31</time>
   <energy>
    <i name="e_fr_energy">    -43.92474554 </i>
    <i name="e_wo_entrp">    -43.92474554 </i>
    <i name="e_0_energy">    -43.92474554 </i>
   </energy>
  </scstep>
  <scstep>
   <time name="dav">   94.34   94.26</time>
   <time name="total">  101.62  101.54</time>
   <energy>
    <i name="e_fr_energy">    -43.91743574 </i>
    <i name="e_wo_entrp">    -43.91743574 </i>
    <i name="e_0_energy">    -43.91743574 </i>
   </energy>
  </scstep>
  <scstep>
   <time name="dav">  101.13  101.05</time>
   <time name="total">  108.47  108.39</time>
   <energy>
    <i name="e_fr_energy">    -43.91764326 </i>
    <i name="e_wo_entrp">    -43.91764326 </i>
    <i name="e_0_energy">    -43.91764326 </i>
   </energy>
  </scstep>
  <scstep>
   <time name="dav">   96.54   96.47</time>
   <time name="total">  103.84  103.76</time>
   <energy>
    <i name="e_fr_energy">    -43.91732025 </i>
    <i name="e_wo_entrp">    -43.91732025 </i>
    <i name="e_0_energy">    -43.91732025 </i>
   </energy>
  </scstep>
  <scstep>
   <time name="dav">   99.30   99.22</time>
   <time name="total">  106.64  106.56</time>
   <energy>
    <i name="e_fr_energy">    -43.91747430 </i>
    <i name="e_wo_entrp">    -43.91747430 </i>
    <i name="e_0_energy">    -43.91747430 </i>
   </energy>
  </scstep>
  <scstep>
   <time name="dav">   99.20   99.12</time>
   <time name="total">  106.50  106.42</time>
   <energy>
    <i name="e_fr_energy">    -43.91746036 </i>
    <i name="e_wo_entrp">    -43.91746036 </i>
    <i name="e_0_energy">    -43.91746036 </i>
   </energy>
  </scstep>
  <scstep>
   <time name="dav">   98.00   97.92</time>
   <time name="total">  105.32  105.24</time>
   <energy>
    <i name="e_fr_energy">    -43.91746553 </i>
    <i name="e_wo_entrp">    -43.91746553 </i>
    <i name="e_0_energy">    -43.91746553 </i>
   </energy>
  </scstep>
  <scstep>
   <time name="dav">   94.94   94.87</time>
   <time name="total">  102.24  102.17</time>
   <energy>
    <i name="e_fr_energy">    -43.91746338 </i>
    <i name="e_wo_entrp">    -43.91746338 </i>
    <i name="e_0_energy">    -43.91746338 </i>
   </energy>
  </scstep>
  <scstep>
   <time name="dav">  103.39  103.31</time>
   <time name="total">  110.73  110.65</time>
   <energy>
    <i name="e_fr_energy">    -43.91746362 </i>
    <i name="e_wo_entrp">    -43.91746362 </i>
    <i name="e_0_energy">    -43.91746362 </i>
   </energy>
  </scstep>
  <scstep>
   <time name="dav">   95.57   95.50</time>
   <time name="total">  102.88  102.80</time>
   <energy>
    <i name="e_fr_energy">    -43.91746389 </i>
    <i name="e_wo_entrp">    -43.91746389 </i>
    <i name="e_0_energy">    -43.91746389 </i>
   </energy>
  </scstep>
  <scstep>
   <time name="dav">   96.30   96.23</time>
   <time name="total">  103.63  103.55</time>
   <energy>
    <i name="e_fr_energy">    -43.91746433 </i>
    <i name="e_wo_entrp">    -43.91746433 </i>
    <i name="e_0_energy">    -43.91746433 </i>
   </energy>
  </scstep>
  <scstep>
   <time name="dav">   86.31   86.25</time>
   <time name="total">   93.62   93.55</time>
   <energy>
    <i name="e_fr_energy">    -43.91746442 </i>
    <i name="e_wo_entrp">    -43.91746442 </i>
    <i name="e_0_energy">    -43.91746442 </i>
   </energy>
  </scstep>
  <scstep>
   <time name="dav">   96.33   96.25</time>
   <time name="total">  103.67  103.60</time>
   <energy>
    <i name="e_fr_energy">    -43.91746453 </i>
    <i name="e_wo_entrp">    -43.91746453 </i>
    <i name="e_0_energy">    -43.91746453 </i>
   </energy>
  </scstep>
  <scstep>
   <time name="dav">   96.39   96.32</time>
   <time name="total">  103.71  103.64</time>
   <energy>
    <i name="e_fr_energy">    -43.91746459 </i>
    <i name="e_wo_entrp">    -43.91746459 </i>
    <i name="e_0_energy">    -43.91746459 </i>
   </energy>
  </scstep>
  <scstep>
   <time name="dav">   70.38   70.32</time>
   <time name="total">   77.71   77.66</time>
   <energy>
    <i name="e_fr_energy">    -43.91746457 </i>
    <i name="e_wo_entrp">    -43.91746457 </i>
    <i name="e_0_energy">    -43.91746457 </i>
   </energy>
  </scstep>
  <scstep>
   <time name="dav">   67.18   67.13</time>
   <time name="total">   74.49   74.44</time>
   <energy>
    <i name="e_fr_energy">    -43.91746459 </i>
    <i name="e_wo_entrp">    -43.91746459 </i>
    <i name="e_0_energy">    -43.91746459 </i>
   </energy>
  </scstep>
  <scstep>
   <time name="dav">   70.16   70.11</time>
   <time name="total">   77.49   77.44</time>
   <energy>
    <i name="e_fr_energy">    -43.91746462 </i>
    <i name="e_wo_entrp">    -43.91746462 </i>
    <i name="e_0_energy">    -43.91746462 </i>
   </energy>
  </scstep>
  <scstep>
   <time name="dav">   67.37   67.32</time>
   <time name="total">   67.71   67.66</time>
   <energy>
    <i name="alphaZ">    401.02640649 </i>
    <i name="ewald">  -8356.20325456 </i>
    <i name="hartreedc">  -4019.33556606 </i>
    <i name="XCdc">   -165.52638433 </i>
    <i name="pawpsdc">  13729.14837494 </i>
    <i name="pawaedc"> -13159.40068363 </i>
    <i name="eentropy">     -0.00000000 </i>
    <i name="bandstr">   -603.28926102 </i>
    <i name="atom">  12129.66290356 </i>
    <i name="e_fr_energy">    -43.91746463 </i>
    <i name="e_wo_entrp">    -43.91746463 </i>
    <i name="e_0_energy">    -43.91746463 </i>
   </energy>
  </scstep>
  <structure>
   <crystal>
    <varray name="basis" >
     <v>      -0.00000340       6.48458704       6.48458880 </v>
     <v>       6.48459448       0.00000454       6.48459324 </v>
     <v>       6.48460158       6.48459856       0.00000634 </v>
    </varray>
    <i name="volume">    545.35350099 </i>
    <varray name="rec_basis" >
     <v>      -0.07710592       0.07710588       0.07710588 </v>
     <v>       0.07710579      -0.07710590       0.07710592 </v>
     <v>       0.07710573       0.07710586      -0.07710580 </v>
    </varray>
   </crystal>
   <varray name="positions" >
    <v>       0.99891234       0.00000316       0.99999723 </v>
    <v>       0.50000278       0.00000316       0.99999723 </v>
    <v>       0.00000278       0.50000316       0.99999723 </v>
    <v>       0.50000278       0.50000316       0.99999723 </v>
    <v>       0.00000278       0.00000316       0.49999723 </v>
    <v>       0.50000278       0.00000316       0.49999723 </v>
    <v>       0.00000278       0.50000316       0.49999723 </v>
    <v>       0.50000278       0.50000316       0.49999723 </v>
    <v>       0.37499722       0.37499684       0.37500277 </v>
    <v>       0.87499722       0.37499684       0.37500277 </v>
    <v>       0.37499722       0.87499684       0.37500277 </v>
    <v>       0.87499722       0.87499684       0.37500277 </v>
    <v>       0.37499722       0.37499684       0.87500277 </v>
    <v>       0.87499722       0.37499684       0.87500277 </v>
    <v>       0.37499722       0.87499684       0.87500277 </v>
    <v>       0.87499722       0.87499684       0.87500277 </v>
   </varray>
  </structure>
  <varray name="forces" >
   <v>       0.00073462       0.03470438       0.03434889 </v>
   <v>      -0.00003464      -0.00439865      -0.00475426 </v>
   <v>      -0.00228703       0.00308919      -0.00248813 </v>
   <v>       0.00225111      -0.00212591       0.00273769 </v>
   <v>      -0.00228714      -0.00213260       0.00273344 </v>
   <v>       0.00225122       0.00309305      -0.00248152 </v>
   <v>      -0.00001894       0.00013987      -0.00021570 </v>
   <v>      -0.00002193      -0.00053218      -0.00088776 </v>
   <v>      -0.00030215      -0.00002410       0.00033150 </v>
   <v>       0.00034483      -0.00002318       0.00033236 </v>
   <v>       0.00002084       0.00030075       0.00065442 </v>
   <v>      -0.00002778      -0.00023292       0.00022034 </v>
   <v>       0.00002085       0.00029893       0.00065640 </v>
   <v>      -0.00002778      -0.00013460       0.00012326 </v>
   <v>       0.01552100      -0.01574472      -0.01538841 </v>
   <v>      -0.01613706      -0.01627729      -0.01592251 </v>
  </varray>
  <varray name="stress" >
   <v>       2.13050331       0.11269982       0.12413409 </v>
   <v>       0.11269939       2.12949293       0.00192451 </v>
   <v>       0.12413386       0.00192468       2.12959809 </v>
  </varray>
  <energy>
   <i name="e_fr_energy">    -43.91746463 </i>
   <i name="e_wo_entrp">    -43.91746463 </i>
   <i name="e_0_energy">    -43.91746463 </i>
  </energy>
  <time name="totalsc"> 2435.80 2437.11</time>
  <eigenvalues>
   <array>
    <dimension dim="1">band</dimension>
    <dimension dim="2">kpoint</dimension>
    <dimension dim="3">spin</dimension>
    <field>eigene</field>
    <field>occ</field>
    <set>
     <set comment="spin 1">
      <set comment="kpoint 1">
       <r>   -9.0081    1.0000 </r>
       <r>   -8.6087    1.0000 </r>
       <r>   -8.6032    1.0000 </r>
       <r>   -8.6032    1.0000 </r>
       <r>   -8.5983    1.0000 </r>
       <r>   -8.4829    1.0000 </r>
       <r>   -8.4796    1.0000 </r>
       <r>   -8.4758    1.0000 </r>
       <r>   -6.0552    1.0000 </r>
       <r>   -6.0546    1.0000 </r>
       <r>   -6.0541    1.0000 </r>
       <r>   -5.9920    1.0000 </r>
       <r>   -5.9912    1.0000 </r>
       <r>   -5.9910    1.0000 </r>
       <r>   -5.9908    1.0000 </r>
       <r>   -5.9908    1.0000 </r>
       <r>   -5.9905    1.0000 </r>
       <r>   -5.9903    1.0000 </r>
       <r>   -5.9895    1.0000 </r>
       <r>   -5.8986    1.0000 </r>
       <r>   -5.8986    1.0000 </r>
       <r>   -5.8986    1.0000 </r>
       <r>   -5.8899    1.0000 </r>
       <r>   -5.8892    1.0000 </r>
       <r>   -5.8891    1.0000 </r>
       <r>   -5.8891    1.0000 </r>
       <r>   -5.8890    1.0000 </r>
       <r>   -5.8883    1.0000 </r>
       <r>   -5.7911    1.0000 </r>
       <r>   -5.7911    1.0000 </r>
       <r>   -5.7822    1.0000 </r>
       <r>   -5.7821    1.0000 </r>
       <r>   -5.7819    1.0000 </r>
       <r>   -5.7819    1.0000 </r>
       <r>   -5.7819    1.0000 </r>
       <r>   -5.7818    1.0000 </r>
       <r>   -5.7816    1.0000 </r>
       <r>   -5.7816    1.0000 </r>
       <r>   -5.7597    1.0000 </r>
       <r>   -5.7597    1.0000 </r>
       <r>   -5.7596    1.0000 </r>
       <r>   -5.4470    1.0000 </r>
       <r>   -5.4463    1.0000 </r>
       <r>   -5.4463    1.0000 </r>
       <r>   -5.4456    1.0000 </r>
       <r>   -5.3113    1.0000 </r>
       <r>   -5.3108    1.0000 </r>
       <r>   -5.3104    1.0000 </r>
       <r>   -2.2733    1.0000 </r>
       <r>   -2.2695    1.0000 </r>
       <r>   -2.2694    1.0000 </r>
       <r>   -2.2657    1.0000 </r>
       <r>   -2.1459    1.0000 </r>
       <r>   -2.1459    1.0000 </r>
       <r>   -2.1458    1.0000 </r>
       <r>    0.3128    1.0000 </r>
       <r>    0.3139    1.0000 </r>
       <r>    0.3150    1.0000 </r>
       <r>    0.3150    1.0000 </r>
       <r>    0.3160    1.0000 </r>
       <r>    0.3171    1.0000 </r>
       <r>    1.4095    1.0000 </r>
       <r>    1.4125    1.0000 </r>
       <r>    1.4127    1.0000 </r>
       <r>    1.4132    1.0000 </r>
       <r>    1.4150    1.0000 </r>
       <r>    1.4155    1.0000 </r>
       <r>    1.4157    1.0000 </r>
       <r>    1.4187    1.0000 </r>
       <r>    2.1942    1.0000 </r>
       <r>    2.1952    1.0000 </r>
       <r>    2.1962    1.0000 </r>
       <r>    2.8527    0.0000 </r>
       <r>    3.9246    0.0000 </r>
       <r>    3.9261    0.0000 </r>
       <r>    3.9262    0.0000 </r>
       <r>    3.9277    0.0000 </r>
       <r>    4.6852    0.0000 </r>
       <r>    4.6892    0.0000 </r>
       <r>    4.6932    0.0000 </r>
       <r>    4.7940    0.0000 </r>
       <r>    4.7940    0.0000 </r>
       <r>    4.7940    0.0000 </r>
       <r>    6.7418    0.0000 </r>
       <r>    6.7425    0.0000 </r>
       <r>    6.7434    0.0000 </r>
       <r>    7.3206    0.0000 </r>
       <r>    7.3219    0.0000 </r>
       <r>    7.3256    0.0000 </r>
       <r>    7.3257    0.0000 </r>
       <r>    7.3262    0.0000 </r>
       <r>    7.3263    0.0000 </r>
       <r>    7.3301    0.0000 </r>
       <r>    7.3314    0.0000 </r>
       <r>    9.1223    0.0000 </r>
       <r>    9.1267    0.0000 </r>
       <r>    9.1267    0.0000 </r>
       <r>    9.1310    0.0000 </r>
       <r>    9.4921    0.0000 </r>
       <r>   10.7104    0.0000 </r>
       <r>   10.7110    0.0000 </r>
       <r>   10.7111    0.0000 </r>
       <r>   10.7116    0.0000 </r>
       <r>   10.9097    0.0000 </r>
       <r>   10.9097    0.0000 </r>
       <r>   10.9097    0.0000 </r>
       <r>   11.2534    0.0000 </r>
       <r>   11.2564    0.0000 </r>
       <r>   11.2570    0.0000 </r>
       <r>   11.2571    0.0000 </r>
       <r>   11.2578    0.0000 </r>
       <r>   11.2608    0.0000 </r>
      </set>
      <set comment="kpoint 2">
       <r>   -8.9811    1.0000 </r>
       <r>   -8.6305    1.0000 </r>
       <r>   -8.5988    1.0000 </r>
       <r>   -8.5952    1.0000 </r>
       <r>   -8.5915    1.0000 </r>
       <r>   -8.4914    1.0000 </r>
       <r>   -8.4881    1.0000 </r>
       <r>   -8.4843    1.0000 </r>
       <r>   -6.0500    1.0000 </r>
       <r>   -6.0495    1.0000 </r>
       <r>   -6.0348    1.0000 </r>
       <r>   -5.9944    1.0000 </r>
       <r>   -5.9941    1.0000 </r>
       <r>   -5.9877    1.0000 </r>
       <r>   -5.9875    1.0000 </r>
       <r>   -5.9863    1.0000 </r>
       <r>   -5.9841    1.0000 </r>
       <r>   -5.9837    1.0000 </r>
       <r>   -5.9833    1.0000 </r>
       <r>   -5.9112    1.0000 </r>
       <r>   -5.9110    1.0000 </r>
       <r>   -5.9105    1.0000 </r>
       <r>   -5.8958    1.0000 </r>
       <r>   -5.8953    1.0000 </r>
       <r>   -5.8952    1.0000 </r>
       <r>   -5.8782    1.0000 </r>
       <r>   -5.8780    1.0000 </r>
       <r>   -5.8778    1.0000 </r>
       <r>   -5.7918    1.0000 </r>
       <r>   -5.7916    1.0000 </r>
       <r>   -5.7888    1.0000 </r>
       <r>   -5.7887    1.0000 </r>
       <r>   -5.7885    1.0000 </r>
       <r>   -5.7837    1.0000 </r>
       <r>   -5.7837    1.0000 </r>
       <r>   -5.7815    1.0000 </r>
       <r>   -5.7813    1.0000 </r>
       <r>   -5.7812    1.0000 </r>
       <r>   -5.7625    1.0000 </r>
       <r>   -5.7624    1.0000 </r>
       <r>   -5.7623    1.0000 </r>
       <r>   -5.5256    1.0000 </r>
       <r>   -5.4410    1.0000 </r>
       <r>   -5.4404    1.0000 </r>
       <r>   -5.4400    1.0000 </r>
       <r>   -5.3251    1.0000 </r>
       <r>   -5.3247    1.0000 </r>
       <r>   -5.3242    1.0000 </r>
       <r>   -2.2120    1.0000 </r>
       <r>   -2.2086    1.0000 </r>
       <r>   -2.2071    1.0000 </r>
       <r>   -2.0767    1.0000 </r>
       <r>   -2.0762    1.0000 </r>
       <r>   -2.0761    1.0000 </r>
       <r>   -2.0353    1.0000 </r>
       <r>    0.1952    1.0000 </r>
       <r>    0.1962    1.0000 </r>
       <r>    0.1982    1.0000 </r>
       <r>    0.3752    1.0000 </r>
       <r>    0.3754    1.0000 </r>
       <r>    0.3768    1.0000 </r>
       <r>    1.0981    1.0000 </r>
       <r>    1.0998    1.0000 </r>
       <r>    1.1033    1.0000 </r>
       <r>    1.3201    1.0000 </r>
       <r>    1.3212    1.0000 </r>
       <r>    1.3218    1.0000 </r>
       <r>    1.4493    1.0000 </r>
       <r>    1.4568    1.0000 </r>
       <r>    1.4585    1.0000 </r>
       <r>    2.1292    1.0000 </r>
       <r>    2.1302    1.0000 </r>
       <r>    3.4540    0.0000 </r>
       <r>    3.9561    0.0000 </r>
       <r>    4.2919    0.0000 </r>
       <r>    4.2921    0.0000 </r>
       <r>    4.2935    0.0000 </r>
       <r>    4.7719    0.0000 </r>
       <r>    4.7735    0.0000 </r>
       <r>    4.7768    0.0000 </r>
       <r>    5.0703    0.0000 </r>
       <r>    5.0727    0.0000 </r>
       <r>    5.0734    0.0000 </r>
       <r>    6.6874    0.0000 </r>
       <r>    6.8442    0.0000 </r>
       <r>    6.8452    0.0000 </r>
       <r>    7.0852    0.0000 </r>
       <r>    7.0887    0.0000 </r>
       <r>    7.0901    0.0000 </r>
       <r>    7.3420    0.0000 </r>
       <r>    7.3449    0.0000 </r>
       <r>    7.5253    0.0000 </r>
       <r>    7.5289    0.0000 </r>
       <r>    7.5290    0.0000 </r>
       <r>    8.9945    0.0000 </r>
       <r>    9.2274    0.0000 </r>
       <r>    9.2296    0.0000 </r>
       <r>    9.2324    0.0000 </r>
       <r>    9.8892    0.0000 </r>
       <r>   10.2529    0.0000 </r>
       <r>   10.2542    0.0000 </r>
       <r>   10.2543    0.0000 </r>
       <r>   10.3254    0.0000 </r>
       <r>   10.6471    0.0000 </r>
       <r>   10.6484    0.0000 </r>
       <r>   10.6487    0.0000 </r>
       <r>   10.7710    0.0000 </r>
       <r>   10.7725    0.0000 </r>
       <r>   10.7742    0.0000 </r>
       <r>   11.0464    0.0000 </r>
       <r>   11.0465    0.0000 </r>
       <r>   11.2472    0.0000 </r>
      </set>
      <set comment="kpoint 3">
       <r>   -8.9811    1.0000 </r>
       <r>   -8.6304    1.0000 </r>
       <r>   -8.5988    1.0000 </r>
       <r>   -8.5952    1.0000 </r>
       <r>   -8.5916    1.0000 </r>
       <r>   -8.4914    1.0000 </r>
       <r>   -8.4881    1.0000 </r>
       <r>   -8.4843    1.0000 </r>
       <r>   -6.0499    1.0000 </r>
       <r>   -6.0490    1.0000 </r>
       <r>   -6.0354    1.0000 </r>
       <r>   -5.9941    1.0000 </r>
       <r>   -5.9937    1.0000 </r>
       <r>   -5.9881    1.0000 </r>
       <r>   -5.9875    1.0000 </r>
       <r>   -5.9869    1.0000 </r>
       <r>   -5.9843    1.0000 </r>
       <r>   -5.9836    1.0000 </r>
       <r>   -5.9829    1.0000 </r>
       <r>   -5.9114    1.0000 </r>
       <r>   -5.9110    1.0000 </r>
       <r>   -5.9106    1.0000 </r>
       <r>   -5.8957    1.0000 </r>
       <r>   -5.8952    1.0000 </r>
       <r>   -5.8947    1.0000 </r>
       <r>   -5.8785    1.0000 </r>
       <r>   -5.8782    1.0000 </r>
       <r>   -5.8779    1.0000 </r>
       <r>   -5.7919    1.0000 </r>
       <r>   -5.7917    1.0000 </r>
       <r>   -5.7889    1.0000 </r>
       <r>   -5.7887    1.0000 </r>
       <r>   -5.7883    1.0000 </r>
       <r>   -5.7840    1.0000 </r>
       <r>   -5.7838    1.0000 </r>
       <r>   -5.7813    1.0000 </r>
       <r>   -5.7811    1.0000 </r>
       <r>   -5.7810    1.0000 </r>
       <r>   -5.7625    1.0000 </r>
       <r>   -5.7624    1.0000 </r>
       <r>   -5.7624    1.0000 </r>
       <r>   -5.5258    1.0000 </r>
       <r>   -5.4409    1.0000 </r>
       <r>   -5.4404    1.0000 </r>
       <r>   -5.4399    1.0000 </r>
       <r>   -5.3251    1.0000 </r>
       <r>   -5.3247    1.0000 </r>
       <r>   -5.3242    1.0000 </r>
       <r>   -2.2115    1.0000 </r>
       <r>   -2.2085    1.0000 </r>
       <r>   -2.2056    1.0000 </r>
       <r>   -2.0765    1.0000 </r>
       <r>   -2.0762    1.0000 </r>
       <r>   -2.0758    1.0000 </r>
       <r>   -2.0373    1.0000 </r>
       <r>    0.1950    1.0000 </r>
       <r>    0.1961    1.0000 </r>
       <r>    0.1971    1.0000 </r>
       <r>    0.3747    1.0000 </r>
       <r>    0.3761    1.0000 </r>
       <r>    0.3776    1.0000 </r>
       <r>    1.0975    1.0000 </r>
       <r>    1.0992    1.0000 </r>
       <r>    1.1009    1.0000 </r>
       <r>    1.3210    1.0000 </r>
       <r>    1.3222    1.0000 </r>
       <r>    1.3235    1.0000 </r>
       <r>    1.4483    1.0000 </r>
       <r>    1.4559    1.0000 </r>
       <r>    1.4590    1.0000 </r>
       <r>    2.1292    1.0000 </r>
       <r>    2.1309    1.0000 </r>
       <r>    3.4542    0.0000 </r>
       <r>    3.9576    0.0000 </r>
       <r>    4.2908    0.0000 </r>
       <r>    4.2920    0.0000 </r>
       <r>    4.2933    0.0000 </r>
       <r>    4.7721    0.0000 </r>
       <r>    4.7749    0.0000 </r>
       <r>    4.7778    0.0000 </r>
       <r>    5.0697    0.0000 </r>
       <r>    5.0714    0.0000 </r>
       <r>    5.0731    0.0000 </r>
       <r>    6.6881    0.0000 </r>
       <r>    6.8437    0.0000 </r>
       <r>    6.8453    0.0000 </r>
       <r>    7.0883    0.0000 </r>
       <r>    7.0897    0.0000 </r>
       <r>    7.0911    0.0000 </r>
       <r>    7.3417    0.0000 </r>
       <r>    7.3468    0.0000 </r>
       <r>    7.5254    0.0000 </r>
       <r>    7.5255    0.0000 </r>
       <r>    7.5255    0.0000 </r>
       <r>    8.9953    0.0000 </r>
       <r>    9.2266    0.0000 </r>
       <r>    9.2292    0.0000 </r>
       <r>    9.2318    0.0000 </r>
       <r>    9.8891    0.0000 </r>
       <r>   10.2521    0.0000 </r>
       <r>   10.2536    0.0000 </r>
       <r>   10.2550    0.0000 </r>
       <r>   10.3251    0.0000 </r>
       <r>   10.6481    0.0000 </r>
       <r>   10.6486    0.0000 </r>
       <r>   10.6491    0.0000 </r>
       <r>   10.7701    0.0000 </r>
       <r>   10.7715    0.0000 </r>
       <r>   10.7729    0.0000 </r>
       <r>   11.0460    0.0000 </r>
       <r>   11.0463    0.0000 </r>
       <r>   11.2473    0.0000 </r>
      </set>
      <set comment="kpoint 4">
       <r>   -8.9811    1.0000 </r>
       <r>   -8.6304    1.0000 </r>
       <r>   -8.5988    1.0000 </r>
       <r>   -8.5952    1.0000 </r>
       <r>   -8.5916    1.0000 </r>
       <r>   -8.4914    1.0000 </r>
       <r>   -8.4881    1.0000 </r>
       <r>   -8.4843    1.0000 </r>
       <r>   -6.0499    1.0000 </r>
       <r>   -6.0491    1.0000 </r>
       <r>   -6.0353    1.0000 </r>
       <r>   -5.9942    1.0000 </r>
       <r>   -5.9937    1.0000 </r>
       <r>   -5.9880    1.0000 </r>
       <r>   -5.9875    1.0000 </r>
       <r>   -5.9869    1.0000 </r>
       <r>   -5.9843    1.0000 </r>
       <r>   -5.9836    1.0000 </r>
       <r>   -5.9829    1.0000 </r>
       <r>   -5.9114    1.0000 </r>
       <r>   -5.9110    1.0000 </r>
       <r>   -5.9106    1.0000 </r>
       <r>   -5.8957    1.0000 </r>
       <r>   -5.8952    1.0000 </r>
       <r>   -5.8947    1.0000 </r>
       <r>   -5.8784    1.0000 </r>
       <r>   -5.8782    1.0000 </r>
       <r>   -5.8779    1.0000 </r>
       <r>   -5.7919    1.0000 </r>
       <r>   -5.7917    1.0000 </r>
       <r>   -5.7889    1.0000 </r>
       <r>   -5.7887    1.0000 </r>
       <r>   -5.7883    1.0000 </r>
       <r>   -5.7840    1.0000 </r>
       <r>   -5.7838    1.0000 </r>
       <r>   -5.7813    1.0000 </r>
       <r>   -5.7811    1.0000 </r>
       <r>   -5.7810    1.0000 </r>
       <r>   -5.7625    1.0000 </r>
       <r>   -5.7624    1.0000 </r>
       <r>   -5.7624    1.0000 </r>
       <r>   -5.5258    1.0000 </r>
       <r>   -5.4409    1.0000 </r>
       <r>   -5.4404    1.0000 </r>
       <r>   -5.4399    1.0000 </r>
       <r>   -5.3251    1.0000 </r>
       <r>   -5.3247    1.0000 </r>
       <r>   -5.3242    1.0000 </r>
       <r>   -2.2116    1.0000 </r>
       <r>   -2.2086    1.0000 </r>
       <r>   -2.2057    1.0000 </r>
       <r>   -2.0765    1.0000 </r>
       <r>   -2.0762    1.0000 </r>
       <r>   -2.0758    1.0000 </r>
       <r>   -2.0372    1.0000 </r>
       <r>    0.1951    1.0000 </r>
       <r>    0.1961    1.0000 </r>
       <r>    0.1972    1.0000 </r>
       <r>    0.3747    1.0000 </r>
       <r>    0.3761    1.0000 </r>
       <r>    0.3776    1.0000 </r>
       <r>    1.0976    1.0000 </r>
       <r>    1.0993    1.0000 </r>
       <r>    1.1010    1.0000 </r>
       <r>    1.3209    1.0000 </r>
       <r>    1.3221    1.0000 </r>
       <r>    1.3234    1.0000 </r>
       <r>    1.4484    1.0000 </r>
       <r>    1.4560    1.0000 </r>
       <r>    1.4590    1.0000 </r>
       <r>    2.1292    1.0000 </r>
       <r>    2.1309    1.0000 </r>
       <r>    3.4541    0.0000 </r>
       <r>    3.9575    0.0000 </r>
       <r>    4.2908    0.0000 </r>
       <r>    4.2921    0.0000 </r>
       <r>    4.2933    0.0000 </r>
       <r>    4.7720    0.0000 </r>
       <r>    4.7749    0.0000 </r>
       <r>    4.7777    0.0000 </r>
       <r>    5.0698    0.0000 </r>
       <r>    5.0715    0.0000 </r>
       <r>    5.0732    0.0000 </r>
       <r>    6.6880    0.0000 </r>
       <r>    6.8437    0.0000 </r>
       <r>    6.8453    0.0000 </r>
       <r>    7.0881    0.0000 </r>
       <r>    7.0896    0.0000 </r>
       <r>    7.0910    0.0000 </r>
       <r>    7.3416    0.0000 </r>
       <r>    7.3468    0.0000 </r>
       <r>    7.5256    0.0000 </r>
       <r>    7.5257    0.0000 </r>
       <r>    7.5257    0.0000 </r>
       <r>    8.9953    0.0000 </r>
       <r>    9.2266    0.0000 </r>
       <r>    9.2292    0.0000 </r>
       <r>    9.2318    0.0000 </r>
       <r>    9.8891    0.0000 </r>
       <r>   10.2521    0.0000 </r>
       <r>   10.2536    0.0000 </r>
       <r>   10.2550    0.0000 </r>
       <r>   10.3252    0.0000 </r>
       <r>   10.6481    0.0000 </r>
       <r>   10.6486    0.0000 </r>
       <r>   10.6491    0.0000 </r>
       <r>   10.7701    0.0000 </r>
       <r>   10.7716    0.0000 </r>
       <r>   10.7730    0.0000 </r>
       <r>   11.0460    0.0000 </r>
       <r>   11.0464    0.0000 </r>
       <r>   11.2475    0.0000 </r>
      </set>
      <set comment="kpoint 5">
       <r>   -8.9810    1.0000 </r>
       <r>   -8.6301    1.0000 </r>
       <r>   -8.5990    1.0000 </r>
       <r>   -8.5952    1.0000 </r>
       <r>   -8.5917    1.0000 </r>
       <r>   -8.4914    1.0000 </r>
       <r>   -8.4881    1.0000 </r>
       <r>   -8.4843    1.0000 </r>
       <r>   -6.0495    1.0000 </r>
       <r>   -6.0490    1.0000 </r>
       <r>   -6.0359    1.0000 </r>
       <r>   -5.9935    1.0000 </r>
       <r>   -5.9933    1.0000 </r>
       <r>   -5.9887    1.0000 </r>
       <r>   -5.9875    1.0000 </r>
       <r>   -5.9872    1.0000 </r>
       <r>   -5.9841    1.0000 </r>
       <r>   -5.9836    1.0000 </r>
       <r>   -5.9832    1.0000 </r>
       <r>   -5.9115    1.0000 </r>
       <r>   -5.9110    1.0000 </r>
       <r>   -5.9108    1.0000 </r>
       <r>   -5.8952    1.0000 </r>
       <r>   -5.8951    1.0000 </r>
       <r>   -5.8946    1.0000 </r>
       <r>   -5.8786    1.0000 </r>
       <r>   -5.8783    1.0000 </r>
       <r>   -5.8781    1.0000 </r>
       <r>   -5.7919    1.0000 </r>
       <r>   -5.7916    1.0000 </r>
       <r>   -5.7890    1.0000 </r>
       <r>   -5.7889    1.0000 </r>
       <r>   -5.7884    1.0000 </r>
       <r>   -5.7839    1.0000 </r>
       <r>   -5.7837    1.0000 </r>
       <r>   -5.7813    1.0000 </r>
       <r>   -5.7811    1.0000 </r>
       <r>   -5.7810    1.0000 </r>
       <r>   -5.7625    1.0000 </r>
       <r>   -5.7624    1.0000 </r>
       <r>   -5.7623    1.0000 </r>
       <r>   -5.5261    1.0000 </r>
       <r>   -5.4408    1.0000 </r>
       <r>   -5.4404    1.0000 </r>
       <r>   -5.4398    1.0000 </r>
       <r>   -5.3251    1.0000 </r>
       <r>   -5.3247    1.0000 </r>
       <r>   -5.3242    1.0000 </r>
       <r>   -2.2100    1.0000 </r>
       <r>   -2.2085    1.0000 </r>
       <r>   -2.2051    1.0000 </r>
       <r>   -2.0763    1.0000 </r>
       <r>   -2.0760    1.0000 </r>
       <r>   -2.0759    1.0000 </r>
       <r>   -2.0389    1.0000 </r>
       <r>    0.1940    1.0000 </r>
       <r>    0.1960    1.0000 </r>
       <r>    0.1970    1.0000 </r>
       <r>    0.3754    1.0000 </r>
       <r>    0.3768    1.0000 </r>
       <r>    0.3770    1.0000 </r>
       <r>    1.0952    1.0000 </r>
       <r>    1.0987    1.0000 </r>
       <r>    1.1004    1.0000 </r>
       <r>    1.3226    1.0000 </r>
       <r>    1.3233    1.0000 </r>
       <r>    1.3242    1.0000 </r>
       <r>    1.4474    1.0000 </r>
       <r>    1.4563    1.0000 </r>
       <r>    1.4581    1.0000 </r>
       <r>    2.1300    1.0000 </r>
       <r>    2.1310    1.0000 </r>
       <r>    3.4543    0.0000 </r>
       <r>    3.9590    0.0000 </r>
       <r>    4.2907    0.0000 </r>
       <r>    4.2921    0.0000 </r>
       <r>    4.2922    0.0000 </r>
       <r>    4.7730    0.0000 </r>
       <r>    4.7763    0.0000 </r>
       <r>    4.7778    0.0000 </r>
       <r>    5.0695    0.0000 </r>
       <r>    5.0702    0.0000 </r>
       <r>    5.0726    0.0000 </r>
       <r>    6.6887    0.0000 </r>
       <r>    6.8438    0.0000 </r>
       <r>    6.8447    0.0000 </r>
       <r>    7.0891    0.0000 </r>
       <r>    7.0905    0.0000 </r>
       <r>    7.0941    0.0000 </r>
       <r>    7.3434    0.0000 </r>
       <r>    7.3465    0.0000 </r>
       <r>    7.5222    0.0000 </r>
       <r>    7.5222    0.0000 </r>
       <r>    7.5258    0.0000 </r>
       <r>    8.9961    0.0000 </r>
       <r>    9.2260    0.0000 </r>
       <r>    9.2288    0.0000 </r>
       <r>    9.2310    0.0000 </r>
       <r>    9.8891    0.0000 </r>
       <r>   10.2528    0.0000 </r>
       <r>   10.2529    0.0000 </r>
       <r>   10.2543    0.0000 </r>
       <r>   10.3249    0.0000 </r>
       <r>   10.6485    0.0000 </r>
       <r>   10.6488    0.0000 </r>
       <r>   10.6501    0.0000 </r>
       <r>   10.7690    0.0000 </r>
       <r>   10.7706    0.0000 </r>
       <r>   10.7721    0.0000 </r>
       <r>   11.0458    0.0000 </r>
       <r>   11.0460    0.0000 </r>
       <r>   11.2478    0.0000 </r>
      </set>
      <set comment="kpoint 6">
       <r>   -8.9069    1.0000 </r>
       <r>   -8.7036    1.0000 </r>
       <r>   -8.5770    1.0000 </r>
       <r>   -8.5731    1.0000 </r>
       <r>   -8.5697    1.0000 </r>
       <r>   -8.5144    1.0000 </r>
       <r>   -8.5112    1.0000 </r>
       <r>   -8.5072    1.0000 </r>
       <r>   -6.0364    1.0000 </r>
       <r>   -6.0359    1.0000 </r>
       <r>   -6.0038    1.0000 </r>
       <r>   -6.0035    1.0000 </r>
       <r>   -5.9772    1.0000 </r>
       <r>   -5.9767    1.0000 </r>
       <r>   -5.9761    1.0000 </r>
       <r>   -5.9718    1.0000 </r>
       <r>   -5.9648    1.0000 </r>
       <r>   -5.9644    1.0000 </r>
       <r>   -5.9640    1.0000 </r>
       <r>   -5.9335    1.0000 </r>
       <r>   -5.9332    1.0000 </r>
       <r>   -5.9325    1.0000 </r>
       <r>   -5.9133    1.0000 </r>
       <r>   -5.9127    1.0000 </r>
       <r>   -5.9126    1.0000 </r>
       <r>   -5.8583    1.0000 </r>
       <r>   -5.8582    1.0000 </r>
       <r>   -5.8580    1.0000 </r>
       <r>   -5.8077    1.0000 </r>
       <r>   -5.8075    1.0000 </r>
       <r>   -5.8074    1.0000 </r>
       <r>   -5.7924    1.0000 </r>
       <r>   -5.7923    1.0000 </r>
       <r>   -5.7878    1.0000 </r>
       <r>   -5.7878    1.0000 </r>
       <r>   -5.7793    1.0000 </r>
       <r>   -5.7790    1.0000 </r>
       <r>   -5.7790    1.0000 </r>
       <r>   -5.7686    1.0000 </r>
       <r>   -5.7685    1.0000 </r>
       <r>   -5.7684    1.0000 </r>
       <r>   -5.6959    1.0000 </r>
       <r>   -5.4232    1.0000 </r>
       <r>   -5.4225    1.0000 </r>
       <r>   -5.4222    1.0000 </r>
       <r>   -5.3581    1.0000 </r>
       <r>   -5.3575    1.0000 </r>
       <r>   -5.3572    1.0000 </r>
       <r>   -2.0593    1.0000 </r>
       <r>   -2.0562    1.0000 </r>
       <r>   -2.0546    1.0000 </r>
       <r>   -1.9411    1.0000 </r>
       <r>   -1.9399    1.0000 </r>
       <r>   -1.9393    1.0000 </r>
       <r>   -1.4212    1.0000 </r>
       <r>    0.0131    1.0000 </r>
       <r>    0.0144    1.0000 </r>
       <r>    0.0168    1.0000 </r>
       <r>    0.4241    1.0000 </r>
       <r>    0.5222    1.0000 </r>
       <r>    0.5238    1.0000 </r>
       <r>    0.5272    1.0000 </r>
       <r>    0.5487    1.0000 </r>
       <r>    0.5490    1.0000 </r>
       <r>    0.5503    1.0000 </r>
       <r>    1.0880    1.0000 </r>
       <r>    1.0888    1.0000 </r>
       <r>    1.0895    1.0000 </r>
       <r>    1.5799    1.0000 </r>
       <r>    1.5815    1.0000 </r>
       <r>    1.9640    1.0000 </r>
       <r>    1.9652    1.0000 </r>
       <r>    3.9720    0.0000 </r>
       <r>    4.0362    0.0000 </r>
       <r>    4.9016    0.0000 </r>
       <r>    4.9026    0.0000 </r>
       <r>    4.9034    0.0000 </r>
       <r>    4.9323    0.0000 </r>
       <r>    4.9332    0.0000 </r>
       <r>    4.9357    0.0000 </r>
       <r>    5.8277    0.0000 </r>
       <r>    5.8306    0.0000 </r>
       <r>    5.8316    0.0000 </r>
       <r>    6.8155    0.0000 </r>
       <r>    6.8192    0.0000 </r>
       <r>    6.8200    0.0000 </r>
       <r>    6.8389    0.0000 </r>
       <r>    7.0815    0.0000 </r>
       <r>    7.0831    0.0000 </r>
       <r>    7.3622    0.0000 </r>
       <r>    7.3649    0.0000 </r>
       <r>    8.0785    0.0000 </r>
       <r>    8.0817    0.0000 </r>
       <r>    8.0819    0.0000 </r>
       <r>    8.3522    0.0000 </r>
       <r>    8.6914    0.0000 </r>
       <r>    8.6921    0.0000 </r>
       <r>    8.6933    0.0000 </r>
       <r>    9.0932    0.0000 </r>
       <r>    9.0946    0.0000 </r>
       <r>    9.0951    0.0000 </r>
       <r>    9.8377    0.0000 </r>
       <r>    9.8398    0.0000 </r>
       <r>    9.8407    0.0000 </r>
       <r>   10.1206    0.0000 </r>
       <r>   10.4945    0.0000 </r>
       <r>   10.6157    0.0000 </r>
       <r>   10.6158    0.0000 </r>
       <r>   10.9038    0.0000 </r>
       <r>   10.9075    0.0000 </r>
       <r>   10.9091    0.0000 </r>
       <r>   11.0243    0.0000 </r>
      </set>
      <set comment="kpoint 7">
       <r>   -8.9068    1.0000 </r>
       <r>   -8.7035    1.0000 </r>
       <r>   -8.5770    1.0000 </r>
       <r>   -8.5731    1.0000 </r>
       <r>   -8.5697    1.0000 </r>
       <r>   -8.5144    1.0000 </r>
       <r>   -8.5112    1.0000 </r>
       <r>   -8.5073    1.0000 </r>
       <r>   -6.0362    1.0000 </r>
       <r>   -6.0354    1.0000 </r>
       <r>   -6.0036    1.0000 </r>
       <r>   -6.0031    1.0000 </r>
       <r>   -5.9778    1.0000 </r>
       <r>   -5.9767    1.0000 </r>
       <r>   -5.9765    1.0000 </r>
       <r>   -5.9723    1.0000 </r>
       <r>   -5.9649    1.0000 </r>
       <r>   -5.9643    1.0000 </r>
       <r>   -5.9636    1.0000 </r>
       <r>   -5.9337    1.0000 </r>
       <r>   -5.9332    1.0000 </r>
       <r>   -5.9328    1.0000 </r>
       <r>   -5.9133    1.0000 </r>
       <r>   -5.9127    1.0000 </r>
       <r>   -5.9121    1.0000 </r>
       <r>   -5.8585    1.0000 </r>
       <r>   -5.8583    1.0000 </r>
       <r>   -5.8581    1.0000 </r>
       <r>   -5.8078    1.0000 </r>
       <r>   -5.8077    1.0000 </r>
       <r>   -5.8076    1.0000 </r>
       <r>   -5.7922    1.0000 </r>
       <r>   -5.7920    1.0000 </r>
       <r>   -5.7882    1.0000 </r>
       <r>   -5.7881    1.0000 </r>
       <r>   -5.7790    1.0000 </r>
       <r>   -5.7789    1.0000 </r>
       <r>   -5.7787    1.0000 </r>
       <r>   -5.7686    1.0000 </r>
       <r>   -5.7685    1.0000 </r>
       <r>   -5.7685    1.0000 </r>
       <r>   -5.6963    1.0000 </r>
       <r>   -5.4230    1.0000 </r>
       <r>   -5.4226    1.0000 </r>
       <r>   -5.4221    1.0000 </r>
       <r>   -5.3580    1.0000 </r>
       <r>   -5.3576    1.0000 </r>
       <r>   -5.3572    1.0000 </r>
       <r>   -2.0587    1.0000 </r>
       <r>   -2.0558    1.0000 </r>
       <r>   -2.0531    1.0000 </r>
       <r>   -1.9408    1.0000 </r>
       <r>   -1.9396    1.0000 </r>
       <r>   -1.9383    1.0000 </r>
       <r>   -1.4229    1.0000 </r>
       <r>    0.0123    1.0000 </r>
       <r>    0.0138    1.0000 </r>
       <r>    0.0152    1.0000 </r>
       <r>    0.4229    1.0000 </r>
       <r>    0.5212    1.0000 </r>
       <r>    0.5230    1.0000 </r>
       <r>    0.5249    1.0000 </r>
       <r>    0.5484    1.0000 </r>
       <r>    0.5498    1.0000 </r>
       <r>    0.5512    1.0000 </r>
       <r>    1.0884    1.0000 </r>
       <r>    1.0897    1.0000 </r>
       <r>    1.0910    1.0000 </r>
       <r>    1.5792    1.0000 </r>
       <r>    1.5820    1.0000 </r>
       <r>    1.9638    1.0000 </r>
       <r>    1.9659    1.0000 </r>
       <r>    3.9728    0.0000 </r>
       <r>    4.0375    0.0000 </r>
       <r>    4.9011    0.0000 </r>
       <r>    4.9025    0.0000 </r>
       <r>    4.9037    0.0000 </r>
       <r>    4.9322    0.0000 </r>
       <r>    4.9345    0.0000 </r>
       <r>    4.9370    0.0000 </r>
       <r>    5.8276    0.0000 </r>
       <r>    5.8295    0.0000 </r>
       <r>    5.8313    0.0000 </r>
       <r>    6.8187    0.0000 </r>
       <r>    6.8197    0.0000 </r>
       <r>    6.8204    0.0000 </r>
       <r>    6.8394    0.0000 </r>
       <r>    7.0811    0.0000 </r>
       <r>    7.0836    0.0000 </r>
       <r>    7.3619    0.0000 </r>
       <r>    7.3666    0.0000 </r>
       <r>    8.0786    0.0000 </r>
       <r>    8.0787    0.0000 </r>
       <r>    8.0789    0.0000 </r>
       <r>    8.3526    0.0000 </r>
       <r>    8.6896    0.0000 </r>
       <r>    8.6910    0.0000 </r>
       <r>    8.6924    0.0000 </r>
       <r>    9.0922    0.0000 </r>
       <r>    9.0938    0.0000 </r>
       <r>    9.0954    0.0000 </r>
       <r>    9.8373    0.0000 </r>
       <r>    9.8380    0.0000 </r>
       <r>    9.8388    0.0000 </r>
       <r>   10.1208    0.0000 </r>
       <r>   10.4946    0.0000 </r>
       <r>   10.6152    0.0000 </r>
       <r>   10.6153    0.0000 </r>
       <r>   10.9063    0.0000 </r>
       <r>   10.9080    0.0000 </r>
       <r>   10.9098    0.0000 </r>
       <r>   11.0226    0.0000 </r>
      </set>
      <set comment="kpoint 8">
       <r>   -8.9068    1.0000 </r>
       <r>   -8.7036    1.0000 </r>
       <r>   -8.5769    1.0000 </r>
       <r>   -8.5731    1.0000 </r>
       <r>   -8.5697    1.0000 </r>
       <r>   -8.5144    1.0000 </r>
       <r>   -8.5112    1.0000 </r>
       <r>   -8.5073    1.0000 </r>
       <r>   -6.0362    1.0000 </r>
       <r>   -6.0354    1.0000 </r>
       <r>   -6.0037    1.0000 </r>
       <r>   -6.0031    1.0000 </r>
       <r>   -5.9777    1.0000 </r>
       <r>   -5.9767    1.0000 </r>
       <r>   -5.9765    1.0000 </r>
       <r>   -5.9722    1.0000 </r>
       <r>   -5.9649    1.0000 </r>
       <r>   -5.9643    1.0000 </r>
       <r>   -5.9636    1.0000 </r>
       <r>   -5.9337    1.0000 </r>
       <r>   -5.9332    1.0000 </r>
       <r>   -5.9328    1.0000 </r>
       <r>   -5.9133    1.0000 </r>
       <r>   -5.9127    1.0000 </r>
       <r>   -5.9121    1.0000 </r>
       <r>   -5.8585    1.0000 </r>
       <r>   -5.8583    1.0000 </r>
       <r>   -5.8581    1.0000 </r>
       <r>   -5.8078    1.0000 </r>
       <r>   -5.8077    1.0000 </r>
       <r>   -5.8075    1.0000 </r>
       <r>   -5.7922    1.0000 </r>
       <r>   -5.7920    1.0000 </r>
       <r>   -5.7882    1.0000 </r>
       <r>   -5.7881    1.0000 </r>
       <r>   -5.7790    1.0000 </r>
       <r>   -5.7789    1.0000 </r>
       <r>   -5.7787    1.0000 </r>
       <r>   -5.7686    1.0000 </r>
       <r>   -5.7685    1.0000 </r>
       <r>   -5.7685    1.0000 </r>
       <r>   -5.6963    1.0000 </r>
       <r>   -5.4230    1.0000 </r>
       <r>   -5.4226    1.0000 </r>
       <r>   -5.4221    1.0000 </r>
       <r>   -5.3580    1.0000 </r>
       <r>   -5.3576    1.0000 </r>
       <r>   -5.3572    1.0000 </r>
       <r>   -2.0588    1.0000 </r>
       <r>   -2.0559    1.0000 </r>
       <r>   -2.0532    1.0000 </r>
       <r>   -1.9408    1.0000 </r>
       <r>   -1.9397    1.0000 </r>
       <r>   -1.9383    1.0000 </r>
       <r>   -1.4228    1.0000 </r>
       <r>    0.0124    1.0000 </r>
       <r>    0.0139    1.0000 </r>
       <r>    0.0153    1.0000 </r>
       <r>    0.4230    1.0000 </r>
       <r>    0.5213    1.0000 </r>
       <r>    0.5231    1.0000 </r>
       <r>    0.5250    1.0000 </r>
       <r>    0.5484    1.0000 </r>
       <r>    0.5498    1.0000 </r>
       <r>    0.5512    1.0000 </r>
       <r>    1.0884    1.0000 </r>
       <r>    1.0896    1.0000 </r>
       <r>    1.0910    1.0000 </r>
       <r>    1.5792    1.0000 </r>
       <r>    1.5820    1.0000 </r>
       <r>    1.9638    1.0000 </r>
       <r>    1.9658    1.0000 </r>
       <r>    3.9727    0.0000 </r>
       <r>    4.0374    0.0000 </r>
       <r>    4.9011    0.0000 </r>
       <r>    4.9026    0.0000 </r>
       <r>    4.9037    0.0000 </r>
       <r>    4.9321    0.0000 </r>
       <r>    4.9344    0.0000 </r>
       <r>    4.9369    0.0000 </r>
       <r>    5.8276    0.0000 </r>
       <r>    5.8295    0.0000 </r>
       <r>    5.8314    0.0000 </r>
       <r>    6.8186    0.0000 </r>
       <r>    6.8195    0.0000 </r>
       <r>    6.8203    0.0000 </r>
       <r>    6.8393    0.0000 </r>
       <r>    7.0811    0.0000 </r>
       <r>    7.0836    0.0000 </r>
       <r>    7.3618    0.0000 </r>
       <r>    7.3665    0.0000 </r>
       <r>    8.0788    0.0000 </r>
       <r>    8.0789    0.0000 </r>
       <r>    8.0790    0.0000 </r>
       <r>    8.3525    0.0000 </r>
       <r>    8.6897    0.0000 </r>
       <r>    8.6911    0.0000 </r>
       <r>    8.6925    0.0000 </r>
       <r>    9.0922    0.0000 </r>
       <r>    9.0938    0.0000 </r>
       <r>    9.0955    0.0000 </r>
       <r>    9.8374    0.0000 </r>
       <r>    9.8381    0.0000 </r>
       <r>    9.8389    0.0000 </r>
       <r>   10.1208    0.0000 </r>
       <r>   10.4946    0.0000 </r>
       <r>   10.6152    0.0000 </r>
       <r>   10.6154    0.0000 </r>
       <r>   10.9062    0.0000 </r>
       <r>   10.9079    0.0000 </r>
       <r>   10.9097    0.0000 </r>
       <r>   11.0228    0.0000 </r>
      </set>
      <set comment="kpoint 9">
       <r>   -8.9068    1.0000 </r>
       <r>   -8.7033    1.0000 </r>
       <r>   -8.5771    1.0000 </r>
       <r>   -8.5731    1.0000 </r>
       <r>   -8.5698    1.0000 </r>
       <r>   -8.5144    1.0000 </r>
       <r>   -8.5112    1.0000 </r>
       <r>   -8.5072    1.0000 </r>
       <r>   -6.0358    1.0000 </r>
       <r>   -6.0353    1.0000 </r>
       <r>   -6.0030    1.0000 </r>
       <r>   -6.0027    1.0000 </r>
       <r>   -5.9784    1.0000 </r>
       <r>   -5.9767    1.0000 </r>
       <r>   -5.9766    1.0000 </r>
       <r>   -5.9728    1.0000 </r>
       <r>   -5.9646    1.0000 </r>
       <r>   -5.9642    1.0000 </r>
       <r>   -5.9638    1.0000 </r>
       <r>   -5.9340    1.0000 </r>
       <r>   -5.9332    1.0000 </r>
       <r>   -5.9330    1.0000 </r>
       <r>   -5.9128    1.0000 </r>
       <r>   -5.9126    1.0000 </r>
       <r>   -5.9121    1.0000 </r>
       <r>   -5.8586    1.0000 </r>
       <r>   -5.8584    1.0000 </r>
       <r>   -5.8583    1.0000 </r>
       <r>   -5.8078    1.0000 </r>
       <r>   -5.8077    1.0000 </r>
       <r>   -5.8077    1.0000 </r>
       <r>   -5.7925    1.0000 </r>
       <r>   -5.7923    1.0000 </r>
       <r>   -5.7880    1.0000 </r>
       <r>   -5.7878    1.0000 </r>
       <r>   -5.7792    1.0000 </r>
       <r>   -5.7789    1.0000 </r>
       <r>   -5.7788    1.0000 </r>
       <r>   -5.7686    1.0000 </r>
       <r>   -5.7684    1.0000 </r>
       <r>   -5.7683    1.0000 </r>
       <r>   -5.6967    1.0000 </r>
       <r>   -5.4230    1.0000 </r>
       <r>   -5.4226    1.0000 </r>
       <r>   -5.4219    1.0000 </r>
       <r>   -5.3580    1.0000 </r>
       <r>   -5.3576    1.0000 </r>
       <r>   -5.3570    1.0000 </r>
       <r>   -2.0571    1.0000 </r>
       <r>   -2.0557    1.0000 </r>
       <r>   -2.0526    1.0000 </r>
       <r>   -1.9400    1.0000 </r>
       <r>   -1.9392    1.0000 </r>
       <r>   -1.9380    1.0000 </r>
       <r>   -1.4244    1.0000 </r>
       <r>    0.0109    1.0000 </r>
       <r>    0.0133    1.0000 </r>
       <r>    0.0146    1.0000 </r>
       <r>    0.4218    1.0000 </r>
       <r>    0.5192    1.0000 </r>
       <r>    0.5223    1.0000 </r>
       <r>    0.5240    1.0000 </r>
       <r>    0.5493    1.0000 </r>
       <r>    0.5505    1.0000 </r>
       <r>    0.5508    1.0000 </r>
       <r>    1.0899    1.0000 </r>
       <r>    1.0906    1.0000 </r>
       <r>    1.0914    1.0000 </r>
       <r>    1.5797    1.0000 </r>
       <r>    1.5813    1.0000 </r>
       <r>    1.9645    1.0000 </r>
       <r>    1.9657    1.0000 </r>
       <r>    3.9733    0.0000 </r>
       <r>    4.0389    0.0000 </r>
       <r>    4.9017    0.0000 </r>
       <r>    4.9024    0.0000 </r>
       <r>    4.9030    0.0000 </r>
       <r>    4.9331    0.0000 </r>
       <r>    4.9362    0.0000 </r>
       <r>    4.9367    0.0000 </r>
       <r>    5.8274    0.0000 </r>
       <r>    5.8284    0.0000 </r>
       <r>    5.8313    0.0000 </r>
       <r>    6.8190    0.0000 </r>
       <r>    6.8200    0.0000 </r>
       <r>    6.8236    0.0000 </r>
       <r>    6.8397    0.0000 </r>
       <r>    7.0817    0.0000 </r>
       <r>    7.0831    0.0000 </r>
       <r>    7.3634    0.0000 </r>
       <r>    7.3662    0.0000 </r>
       <r>    8.0757    0.0000 </r>
       <r>    8.0759    0.0000 </r>
       <r>    8.0791    0.0000 </r>
       <r>    8.3530    0.0000 </r>
       <r>    8.6888    0.0000 </r>
       <r>    8.6900    0.0000 </r>
       <r>    8.6907    0.0000 </r>
       <r>    9.0925    0.0000 </r>
       <r>    9.0930    0.0000 </r>
       <r>    9.0944    0.0000 </r>
       <r>    9.8355    0.0000 </r>
       <r>    9.8363    0.0000 </r>
       <r>    9.8385    0.0000 </r>
       <r>   10.1210    0.0000 </r>
       <r>   10.4948    0.0000 </r>
       <r>   10.6148    0.0000 </r>
       <r>   10.6149    0.0000 </r>
       <r>   10.9068    0.0000 </r>
       <r>   10.9084    0.0000 </r>
       <r>   10.9121    0.0000 </r>
       <r>   11.0230    0.0000 </r>
      </set>
      <set comment="kpoint 10">
       <r>   -8.8083    1.0000 </r>
       <r>   -8.8019    1.0000 </r>
       <r>   -8.5509    1.0000 </r>
       <r>   -8.5431    1.0000 </r>
       <r>   -8.5424    1.0000 </r>
       <r>   -8.5423    1.0000 </r>
       <r>   -8.5417    1.0000 </r>
       <r>   -8.5336    1.0000 </r>
       <r>   -6.0210    1.0000 </r>
       <r>   -6.0202    1.0000 </r>
       <r>   -6.0172    1.0000 </r>
       <r>   -6.0172    1.0000 </r>
       <r>   -5.9590    1.0000 </r>
       <r>   -5.9585    1.0000 </r>
       <r>   -5.9578    1.0000 </r>
       <r>   -5.9571    1.0000 </r>
       <r>   -5.9562    1.0000 </r>
       <r>   -5.9554    1.0000 </r>
       <r>   -5.9399    1.0000 </r>
       <r>   -5.9399    1.0000 </r>
       <r>   -5.9389    1.0000 </r>
       <r>   -5.9372    1.0000 </r>
       <r>   -5.9368    1.0000 </r>
       <r>   -5.9363    1.0000 </r>
       <r>   -5.8599    1.0000 </r>
       <r>   -5.8578    1.0000 </r>
       <r>   -5.8342    1.0000 </r>
       <r>   -5.8339    1.0000 </r>
       <r>   -5.8335    1.0000 </r>
       <r>   -5.8322    1.0000 </r>
       <r>   -5.8321    1.0000 </r>
       <r>   -5.8314    1.0000 </r>
       <r>   -5.7925    1.0000 </r>
       <r>   -5.7924    1.0000 </r>
       <r>   -5.7902    1.0000 </r>
       <r>   -5.7901    1.0000 </r>
       <r>   -5.7766    1.0000 </r>
       <r>   -5.7760    1.0000 </r>
       <r>   -5.7755    1.0000 </r>
       <r>   -5.7740    1.0000 </r>
       <r>   -5.7734    1.0000 </r>
       <r>   -5.7729    1.0000 </r>
       <r>   -5.3948    1.0000 </r>
       <r>   -5.3939    1.0000 </r>
       <r>   -5.3937    1.0000 </r>
       <r>   -5.3936    1.0000 </r>
       <r>   -5.3935    1.0000 </r>
       <r>   -5.3927    1.0000 </r>
       <r>   -1.9236    1.0000 </r>
       <r>   -1.9204    1.0000 </r>
       <r>   -1.9176    1.0000 </r>
       <r>   -1.9165    1.0000 </r>
       <r>   -1.9158    1.0000 </r>
       <r>   -1.9152    1.0000 </r>
       <r>   -0.5669    1.0000 </r>
       <r>   -0.5628    1.0000 </r>
       <r>    0.0882    1.0000 </r>
       <r>    0.0899    1.0000 </r>
[...]
       <r>   -5.8192    1.0000 </r>
       <r>   -5.8190    1.0000 </r>
       <r>   -5.8114    1.0000 </r>
       <r>   -5.8113    1.0000 </r>
       <r>   -5.7910    1.0000 </r>
       <r>   -5.7902    1.0000 </r>
       <r>   -5.7897    1.0000 </r>
       <r>   -5.7890    1.0000 </r>
       <r>   -5.7866    1.0000 </r>
       <r>   -5.7860    1.0000 </r>
       <r>   -5.7779    1.0000 </r>
       <r>   -5.7775    1.0000 </r>
       <r>   -5.7442    1.0000 </r>
       <r>   -5.7438    1.0000 </r>
       <r>   -5.6619    1.0000 </r>
       <r>   -5.6614    1.0000 </r>
       <r>   -5.3777    1.0000 </r>
       <r>   -5.3773    1.0000 </r>
       <r>   -5.2672    1.0000 </r>
       <r>   -5.2672    1.0000 </r>
       <r>   -1.9842    1.0000 </r>
       <r>   -1.9829    1.0000 </r>
       <r>   -1.8378    1.0000 </r>
       <r>   -1.8374    1.0000 </r>
       <r>   -1.1459    1.0000 </r>
       <r>   -1.1458    1.0000 </r>
       <r>   -0.7212    1.0000 </r>
       <r>   -0.7194    1.0000 </r>
       <r>   -0.3256    1.0000 </r>
       <r>   -0.3247    1.0000 </r>
       <r>   -0.2684    1.0000 </r>
       <r>   -0.2656    1.0000 </r>
       <r>    0.3885    1.0000 </r>
       <r>    0.3900    1.0000 </r>
       <r>    0.4541    1.0000 </r>
       <r>    0.4576    1.0000 </r>
       <r>    0.8945    1.0000 </r>
       <r>    0.8948    1.0000 </r>
       <r>    0.9595    1.0000 </r>
       <r>    0.9601    1.0000 </r>
       <r>    1.2485    1.0000 </r>
       <r>    1.2499    1.0000 </r>
       <r>    1.4504    1.0000 </r>
       <r>    1.4525    1.0000 </r>
       <r>    5.2075    0.0000 </r>
       <r>    5.2076    0.0000 </r>
       <r>    5.2669    0.0000 </r>
       <r>    5.2670    0.0000 </r>
       <r>    5.5293    0.0000 </r>
       <r>    5.5297    0.0000 </r>
       <r>    5.7079    0.0000 </r>
       <r>    5.7079    0.0000 </r>
       <r>    6.0381    0.0000 </r>
       <r>    6.0391    0.0000 </r>
       <r>    6.5962    0.0000 </r>
       <r>    6.5962    0.0000 </r>
       <r>    6.9659    0.0000 </r>
       <r>    6.9661    0.0000 </r>
       <r>    7.2019    0.0000 </r>
       <r>    7.2045    0.0000 </r>
       <r>    7.4234    0.0000 </r>
       <r>    7.4241    0.0000 </r>
       <r>    7.5455    0.0000 </r>
       <r>    7.5461    0.0000 </r>
       <r>    7.5859    0.0000 </r>
       <r>    7.5866    0.0000 </r>
       <r>    7.9007    0.0000 </r>
       <r>    7.9027    0.0000 </r>
       <r>    8.2683    0.0000 </r>
       <r>    8.2699    0.0000 </r>
       <r>    8.5281    0.0000 </r>
       <r>    8.5285    0.0000 </r>
       <r>    9.0241    0.0000 </r>
       <r>    9.0254    0.0000 </r>
       <r>    9.3061    0.0000 </r>
       <r>    9.3063    0.0000 </r>
       <r>    9.6024    0.0000 </r>
       <r>    9.6026    0.0000 </r>
       <r>    9.9525    0.0000 </r>
       <r>    9.9529    0.0000 </r>
       <r>   10.1016    0.0000 </r>
       <r>   10.1034    0.0000 </r>
       <r>   10.7920    0.0000 </r>
       <r>   10.7923    0.0000 </r>
      </set>
     </set>
    </set>
   </array>
  </eigenvalues>
  <separator name="orbital magnetization" >
   <v name="MAGDIPOLOUT">      0.00000000      0.00000000      0.00000000</v>
  </separator>
  <dos>
   <i name="efermi">      2.23906456 </i>
   <total>
    <array>
     <dimension dim="1">gridpoints</dimension>
     <dimension dim="2">spin</dimension>
     <field>energy</field>
     <field>total</field>
     <field>integrated</field>
     <set>
      <set comment="spin 1">
       <r>   -10.0401     0.0000     0.0000 </r>
       <r>    -9.9644     0.0000     0.0000 </r>
       <r>    -9.8887     0.0000     0.0000 </r>
       <r>    -9.8130     0.0000     0.0000 </r>
       <r>    -9.7374     0.0000     0.0000 </r>
       <r>    -9.6617     0.0000     0.0000 </r>
       <r>    -9.5860     0.0000     0.0000 </r>
       <r>    -9.5103     0.0000     0.0000 </r>
       <r>    -9.4346     0.0000     0.0000 </r>
       <r>    -9.3590     0.0000     0.0000 </r>
       <r>    -9.2833     0.0000     0.0000 </r>
       <r>    -9.2076     0.0000     0.0000 </r>
       <r>    -9.1319     0.0000     0.0000 </r>
       <r>    -9.0562     0.0000     0.0000 </r>
       <r>    -8.9806     0.7237     0.0548 </r>
       <r>    -8.9049     5.7958     0.4934 </r>
       <r>    -8.8292     7.3386     1.0727 </r>
       <r>    -8.7535    12.4425     2.0163 </r>
       <r>    -8.6778    17.5682     3.3464 </r>
       <r>    -8.6022    37.6925     6.1990 </r>
       <r>    -8.5265    71.1884    11.6030 </r>
       <r>    -8.4508    57.3494    16.0000 </r>
       <r>    -8.3751     0.0000    16.0000 </r>
       <r>    -8.2994     0.0000    16.0000 </r>
       <r>    -8.2237     0.0000    16.0000 </r>
       <r>    -8.1481     0.0000    16.0000 </r>
       <r>    -8.0724     0.0000    16.0000 </r>
       <r>    -7.9967     0.0000    16.0000 </r>
       <r>    -7.9210     0.0000    16.0000 </r>
       <r>    -7.8453     0.0000    16.0000 </r>
       <r>    -7.7697     0.0000    16.0000 </r>
       <r>    -7.6940     0.0000    16.0000 </r>
       <r>    -7.6183     0.0000    16.0000 </r>
       <r>    -7.5426     0.0000    16.0000 </r>
       <r>    -7.4669     0.0000    16.0000 </r>
       <r>    -7.3913     0.0000    16.0000 </r>
       <r>    -7.3156     0.0000    16.0000 </r>
       <r>    -7.2399     0.0000    16.0000 </r>
       <r>    -7.1642     0.0000    16.0000 </r>
       <r>    -7.0885     0.0000    16.0000 </r>
       <r>    -7.0129     0.0000    16.0000 </r>
       <r>    -6.9372     0.0000    16.0000 </r>
       <r>    -6.8615     0.0000    16.0000 </r>
       <r>    -6.7858     0.0000    16.0000 </r>
       <r>    -6.7101     0.0000    16.0000 </r>
       <r>    -6.6345     0.0000    16.0000 </r>
       <r>    -6.5588     0.0000    16.0000 </r>
       <r>    -6.4831     0.0000    16.0000 </r>
       <r>    -6.4074     0.0000    16.0000 </r>
       <r>    -6.3317     0.0000    16.0000 </r>
       <r>    -6.2561     0.0000    16.0000 </r>
       <r>    -6.1804     0.0000    16.0000 </r>
       <r>    -6.1047     0.0000    16.0000 </r>
       <r>    -6.0290    16.7029    17.2641 </r>
       <r>    -5.9533   246.3425    36.0207 </r>
       <r>    -5.8777   179.7087    49.9867 </r>
       <r>    -5.8020   162.3769    62.2911 </r>
       <r>    -5.7263   266.5845    82.8116 </r>
       <r>    -5.6506    13.0072    83.7973 </r>
       <r>    -5.5749    16.5928    85.0685 </r>
       <r>    -5.4993    20.9411    86.6533 </r>
       <r>    -5.4236    29.8330    88.9827 </r>
       <r>    -5.3479    37.9993    91.9473 </r>
       <r>    -5.2722    38.6393    94.9289 </r>
       <r>    -5.1965    13.6566    96.0000 </r>
       <r>    -5.1209     0.0000    96.0000 </r>
       <r>    -5.0452     0.0000    96.0000 </r>
       <r>    -4.9695     0.0000    96.0000 </r>
       <r>    -4.8938     0.0000    96.0000 </r>
       <r>    -4.8181     0.0000    96.0000 </r>
       <r>    -4.7425     0.0000    96.0000 </r>
       <r>    -4.6668     0.0000    96.0000 </r>
       <r>    -4.5911     0.0000    96.0000 </r>
       <r>    -4.5154     0.0000    96.0000 </r>
       <r>    -4.4397     0.0000    96.0000 </r>
       <r>    -4.3640     0.0000    96.0000 </r>
       <r>    -4.2884     0.0000    96.0000 </r>
       <r>    -4.2127     0.0000    96.0000 </r>
       <r>    -4.1370     0.0000    96.0000 </r>
       <r>    -4.0613     0.0000    96.0000 </r>
       <r>    -3.9856     0.0000    96.0000 </r>
       <r>    -3.9100     0.0000    96.0000 </r>
       <r>    -3.8343     0.0000    96.0000 </r>
       <r>    -3.7586     0.0000    96.0000 </r>
       <r>    -3.6829     0.0000    96.0000 </r>
       <r>    -3.6072     0.0000    96.0000 </r>
       <r>    -3.5316     0.0000    96.0000 </r>
       <r>    -3.4559     0.0000    96.0000 </r>
       <r>    -3.3802     0.0000    96.0000 </r>
       <r>    -3.3045     0.0000    96.0000 </r>
       <r>    -3.2288     0.0000    96.0000 </r>
       <r>    -3.1532     0.0000    96.0000 </r>
       <r>    -3.0775     0.0000    96.0000 </r>
       <r>    -3.0018     0.0000    96.0000 </r>
       <r>    -2.9261     0.0000    96.0000 </r>
       <r>    -2.8504     0.0000    96.0000 </r>
       <r>    -2.7748     0.0000    96.0000 </r>
       <r>    -2.6991     0.0000    96.0000 </r>
       <r>    -2.6234     0.0000    96.0000 </r>
       <r>    -2.5477     0.0000    96.0000 </r>
       <r>    -2.4720     0.0000    96.0000 </r>
       <r>    -2.3964     0.0000    96.0000 </r>
       <r>    -2.3207     0.0000    96.0000 </r>
       <r>    -2.2450     0.4891    96.0370 </r>
       <r>    -2.1693     4.5465    96.3811 </r>
       <r>    -2.0936     9.8552    97.1270 </r>
       <r>    -2.0180    32.7114    99.6028 </r>
       <r>    -1.9423    36.4962   102.3819 </r>
       <r>    -1.8666    18.7502   103.8032 </r>
       <r>    -1.7909     9.5274   104.5270 </r>
       <r>    -1.7152    11.0209   105.3611 </r>
       <r>    -1.6396     6.0920   105.8222 </r>
       <r>    -1.5639    11.1826   106.6989 </r>
       <r>    -1.4882     4.3462   107.0278 </r>
       <r>    -1.4125     5.1191   107.4152 </r>
       <r>    -1.3368     4.5966   107.7686 </r>
       <r>    -1.2612     6.6059   108.2685 </r>
       <r>    -1.1855     2.9348   108.4906 </r>
       <r>    -1.1098     5.8719   108.9352 </r>
       <r>    -1.0341     0.0070   108.9357 </r>
       <r>    -0.9584     5.4060   109.3448 </r>
       <r>    -0.8828     2.0378   109.5338 </r>
       <r>    -0.8071     0.7239   109.6019 </r>
       <r>    -0.7314     0.1733   109.6150 </r>
       <r>    -0.6557     8.6355   110.2685 </r>
       <r>    -0.5800     0.0298   110.2708 </r>
       <r>    -0.5043     2.8792   110.4887 </r>
       <r>    -0.4287     1.7353   110.6200 </r>
       <r>    -0.3530     3.0413   110.8505 </r>
       <r>    -0.2773    14.7382   111.9659 </r>
       <r>    -0.2016    15.1513   113.1174 </r>
       <r>    -0.1259    19.0407   114.5607 </r>
       <r>    -0.0503     8.9803   115.2444 </r>
       <r>     0.0254     9.1504   115.9373 </r>
       <r>     0.1011    18.3844   117.3513 </r>
       <r>     0.1768    14.8644   118.5123 </r>
       <r>     0.2525    12.6621   119.4706 </r>
       <r>     0.3281     8.3661   120.1519 </r>
       <r>     0.4038    23.6113   121.9407 </r>
       <r>     0.4795    13.0662   122.9404 </r>
       <r>     0.5552    19.5274   124.4194 </r>
       <r>     0.6309    21.0828   126.0696 </r>
       <r>     0.7065    18.5089   127.4723 </r>
       <r>     0.7822    16.4708   128.7189 </r>
       <r>     0.8579     9.9908   129.5642 </r>
       <r>     0.9336    25.1909   131.4707 </r>
       <r>     1.0093     6.0523   132.0298 </r>
       <r>     1.0849    23.5811   133.8144 </r>
       <r>     1.1606    12.6421   134.8200 </r>
       <r>     1.2363    15.8976   136.0232 </r>
       <r>     1.3120    13.4654   137.0469 </r>
       <r>     1.3877    16.4373   138.2909 </r>
       <r>     1.4633    23.5829   140.1139 </r>
       <r>     1.5390     2.9366   140.3796 </r>
       <r>     1.6147    10.5015   141.1744 </r>
       <r>     1.6904    10.4022   141.9647 </r>
       <r>     1.7661     1.9150   142.1172 </r>
       <r>     1.8417    10.7485   142.9419 </r>
       <r>     1.9174     3.8238   143.2315 </r>
       <r>     1.9931     4.8707   143.6001 </r>
       <r>     2.0688     1.4638   143.7130 </r>
       <r>     2.1445     3.3837   143.9690 </r>
       <r>     2.2201     0.3670   144.0000 </r>
       <r>     2.2958     0.0000   144.0000 </r>
       <r>     2.3715     0.0000   144.0000 </r>
       <r>     2.4472     0.0000   144.0000 </r>
       <r>     2.5229     0.0000   144.0000 </r>
       <r>     2.5985     0.0000   144.0000 </r>
       <r>     2.6742     0.0000   144.0000 </r>
       <r>     2.7499     0.0000   144.0000 </r>
       <r>     2.8256     0.0000   144.0000 </r>
       <r>     2.9013     0.1223   144.0093 </r>
       <r>     2.9769     0.0000   144.0093 </r>
       <r>     3.0526     0.0000   144.0093 </r>
       <r>     3.1283     0.0000   144.0093 </r>
       <r>     3.2040     0.0000   144.0093 </r>
       <r>     3.2797     0.0000   144.0093 </r>
       <r>     3.3554     0.0000   144.0093 </r>
       <r>     3.4310     0.0005   144.0093 </r>
       <r>     3.5067     0.9782   144.0833 </r>
       <r>     3.5824     0.0000   144.0833 </r>
       <r>     3.6581     0.1387   144.0938 </r>
       <r>     3.7338     0.5954   144.1389 </r>
       <r>     3.8094     0.0000   144.1389 </r>
       <r>     3.8851     0.0000   144.1389 </r>
       <r>     3.9608     2.6625   144.3404 </r>
       <r>     4.0365     1.6224   144.4679 </r>
       <r>     4.1122     1.4556   144.5781 </r>
       <r>     4.1878     2.5014   144.7726 </r>
       <r>     4.2635     0.0001   144.8056 </r>
       <r>     4.3392     9.2824   145.5081 </r>
       <r>     4.4149     6.3953   146.0430 </r>
       <r>     4.4906     7.1392   146.5833 </r>
       <r>     4.5662     0.0000   146.5833 </r>
       <r>     4.6419     3.6408   146.8589 </r>
       <r>     4.7176     1.1010   146.9444 </r>
       <r>     4.7933     5.6464   147.3718 </r>
       <r>     4.8690    17.7028   148.7304 </r>
       <r>     4.9446    18.7582   150.1879 </r>
       <r>     5.0203    13.9002   151.2726 </r>
       <r>     5.0960    16.7965   152.5439 </r>
       <r>     5.1717     9.7263   153.3358 </r>
       <r>     5.2474    10.2059   154.1592 </r>
       <r>     5.3230    38.8222   157.0973 </r>
       <r>     5.3987    15.9572   158.3053 </r>
       <r>     5.4744     6.7381   158.8155 </r>
       <r>     5.5501     8.6721   159.4718 </r>
       <r>     5.6258     0.0000   159.4722 </r>
       <r>     5.7014     0.8004   159.5328 </r>
       <r>     5.7771     9.4445   160.2476 </r>
       <r>     5.8528    21.7149   161.8934 </r>
       <r>     5.9285     5.5920   162.3396 </r>
       <r>     6.0042    13.4691   163.3589 </r>
       <r>     6.0798     2.9654   163.6411 </r>
       <r>     6.1555     8.8200   164.3086 </r>
       <r>     6.2312     2.4923   164.5284 </r>
       <r>     6.3069     5.8645   164.9722 </r>
       <r>     6.3826     0.0001   164.9722 </r>
       <r>     6.4582     7.3408   165.5278 </r>
       <r>     6.5339     0.7591   165.5852 </r>
       <r>     6.6096    10.6918   166.3944 </r>
       <r>     6.6853    30.0711   168.7139 </r>
       <r>     6.7610     7.8854   169.3726 </r>
       <r>     6.8366    21.5226   171.0016 </r>
       <r>     6.9123    19.3785   172.5313 </r>
       <r>     6.9880     7.8539   173.1295 </r>
       <r>     7.0637     8.3415   173.7610 </r>
       <r>     7.1394    15.2048   174.9446 </r>
       <r>     7.2151    14.4255   176.0363 </r>
       <r>     7.2907     8.8317   176.7298 </r>
       <r>     7.3664    14.7316   177.8507 </r>
       <r>     7.4421     9.5330   178.5819 </r>
       <r>     7.5178    17.3938   179.8994 </r>
       <r>     7.5935    20.9385   181.4857 </r>
       <r>     7.6691    15.2512   182.6913 </r>
       <r>     7.7448    21.1681   184.3035 </r>
       <r>     7.8205    15.1138   185.4473 </r>
       <r>     7.8962    20.6620   187.0712 </r>
       <r>     7.9719     9.9320   187.8373 </r>
       <r>     8.0475    14.2669   188.9170 </r>
       <r>     8.1232     7.8977   189.5237 </r>
       <r>     8.1989    23.8503   191.3287 </r>
       <r>     8.2746    15.6324   192.5261 </r>
       <r>     8.3503     2.0678   192.7391 </r>
       <r>     8.4259     9.0098   193.4209 </r>
       <r>     8.5016     6.9128   193.9441 </r>
       <r>     8.5773     5.8723   194.3889 </r>
       <r>     8.6530     3.9852   194.6905 </r>
       <r>     8.7287    11.7715   195.6113 </r>
       <r>     8.8043     9.6348   196.3405 </r>
       <r>     8.8800     9.7188   197.0760 </r>
       <r>     8.9557     9.0130   197.7860 </r>
       <r>     9.0314    13.6519   198.8192 </r>
       <r>     9.1071    23.3563   200.6259 </r>
       <r>     9.1827    14.5119   201.7502 </r>
       <r>     9.2584     5.8114   202.2176 </r>
       <r>     9.3341    12.4242   203.1667 </r>
       <r>     9.4098     3.5158   203.4327 </r>
       <r>     9.4855     6.4635   203.9257 </r>
       <r>     9.5611     5.5229   204.3437 </r>
       <r>     9.6368    15.8800   205.5458 </r>
       <r>     9.7125     1.3253   205.6772 </r>
       <r>     9.7882     6.0001   206.1313 </r>
       <r>     9.8639    21.6069   207.7665 </r>
       <r>     9.9395    14.6320   208.8739 </r>
       <r>    10.0152    12.2269   209.8069 </r>
       <r>    10.0909     8.2507   210.4628 </r>
       <r>    10.1666     7.4919   211.0631 </r>
       <r>    10.2423    13.8920   212.1145 </r>
       <r>    10.3179    18.4545   213.5111 </r>
       <r>    10.3936    26.6986   215.5317 </r>
       <r>    10.4693    10.0764   216.3165 </r>
       <r>    10.5450    11.4350   217.1819 </r>
       <r>    10.6207    16.6704   218.4566 </r>
       <r>    10.6963    11.5711   219.3987 </r>
       <r>    10.7720    22.8743   221.1300 </r>
       <r>    10.8477    14.9451   222.2800 </r>
       <r>    10.9234    10.5186   223.1249 </r>
       <r>    10.9991     0.0003   223.1297 </r>
       <r>    11.0748     2.9359   223.3518 </r>
       <r>    11.1504     3.6402   223.6273 </r>
       <r>    11.2261     0.0013   223.6482 </r>
       <r>    11.3018     3.1797   223.8889 </r>
       <r>    11.3775     0.0000   223.8889 </r>
       <r>    11.4532     0.0000   223.8889 </r>
       <r>    11.5288     0.5433   223.9300 </r>
       <r>    11.6045     0.0001   223.9445 </r>
       <r>    11.6802     0.7340   224.0000 </r>
       <r>    11.7559     0.0000   224.0000 </r>
       <r>    11.8316     0.0000   224.0000 </r>
       <r>    11.9072     0.0000   224.0000 </r>
       <r>    11.9829     0.0000   224.0000 </r>
       <r>    12.0586     0.0000   224.0000 </r>
       <r>    12.1343     0.0000   224.0000 </r>
       <r>    12.2100     0.0000   224.0000 </r>
       <r>    12.2856     0.0000   224.0000 </r>
       <r>    12.3613     0.0000   224.0000 </r>
       <r>    12.4370     0.0000   224.0000 </r>
       <r>    12.5127     0.0000   224.0000 </r>
       <r>    12.5884     0.0000   224.0000 </r>
       <r>    12.6640     0.0000   224.0000 </r>
      </set>
     </set>
    </array>
   </total>
  </dos>
 </calculation>
 <structure name="finalpos" >
  <crystal>
   <varray name="basis" >
    <v>      -0.00000340       6.48458704       6.48458880 </v>
    <v>       6.48459448       0.00000454       6.48459324 </v>
    <v>       6.48460158       6.48459856       0.00000634 </v>
   </varray>
   <i name="volume">    545.35350099 </i>
   <varray name="rec_basis" >
    <v>      -0.07710592       0.07710588       0.07710588 </v>
    <v>       0.07710579      -0.07710590       0.07710592 </v>
    <v>       0.07710573       0.07710586      -0.07710580 </v>
   </varray>
  </crystal>
  <varray name="positions" >
   <v>       0.99891234       0.00000316       0.99999723 </v>
   <v>       0.50000278       0.00000316       0.99999723 </v>
   <v>       0.00000278       0.50000316       0.99999723 </v>
   <v>       0.50000278       0.50000316       0.99999723 </v>
   <v>       0.00000278       0.00000316       0.49999723 </v>
   <v>       0.50000278       0.00000316       0.49999723 </v>
   <v>       0.00000278       0.50000316       0.49999723 </v>
   <v>       0.50000278       0.50000316       0.49999723 </v>
   <v>       0.37499722       0.37499684       0.37500277 </v>
   <v>       0.87499722       0.37499684       0.37500277 </v>
   <v>       0.37499722       0.87499684       0.37500277 </v>
   <v>       0.87499722       0.87499684       0.37500277 </v>
   <v>       0.37499722       0.37499684       0.87500277 </v>
   <v>       0.87499722       0.37499684       0.87500277 </v>
   <v>       0.37499722       0.87499684       0.87500277 </v>
   <v>       0.87499722       0.87499684       0.87500277 </v>
  </varray>
 </structure>
</modeling>
