       N       E                     dE             d eps       ncg     rms          rms(c)
DAV:   1     0.947062155784E+03    0.94706E+03   -0.69052E+04 25088   0.126E+03
DAV:   2     0.654780608433E+00   -0.94641E+03   -0.91280E+03 28252   0.289E+02
DAV:   3    -0.453638287199E+02   -0.46019E+02   -0.45798E+02 31416   0.639E+01
DAV:   4    -0.459549395719E+02   -0.59111E+00   -0.59103E+00 29736   0.638E+00
DAV:   5    -0.459615231455E+02   -0.65836E-02   -0.65835E-02 31052   0.702E-01    0.153E+01
DAV:   6    -0.440515863842E+02    0.19099E+01   -0.37593E+00 27216   0.951E+00    0.126E+01
DAV:   7    -0.439246730156E+02    0.12691E+00   -0.11921E+00 28812   0.265E+00    0.483E+00
DAV:   8    -0.439173644946E+02    0.73085E-02   -0.11285E-01 27468   0.157E+00    0.146E+00
DAV:   9    -0.439175728123E+02   -0.20832E-03   -0.11462E-02 30128   0.503E-01    0.410E-01
DAV:  10    -0.439172498695E+02    0.32294E-03   -0.19114E-03 28392   0.202E-01    0.149E-01
DAV:  11    -0.439174038969E+02   -0.15403E-03   -0.73839E-04 29232   0.876E-02    0.801E-02
DAV:  12    -0.439173899798E+02    0.13917E-04   -0.61647E-05 29540   0.313E-02    0.586E-02
DAV:  13    -0.439173950443E+02   -0.50645E-05   -0.67002E-05 28952   0.213E-02    0.995E-02
DAV:  14    -0.439173929787E+02    0.20657E-05   -0.16376E-05 28000   0.138E-02    0.229E-02
DAV:  15    -0.439173932098E+02   -0.23112E-06   -0.14091E-06 30940   0.242E-03    0.179E-02
DAV:  16    -0.439173934728E+02   -0.26304E-06   -0.16258E-07 28420   0.136E-03    0.172E-02
DAV:  17    -0.439173939278E+02   -0.45500E-06   -0.16598E-07 28392   0.103E-03    0.947E-03
DAV:  18    -0.439173940249E+02   -0.97118E-07   -0.91049E-09 24164   0.371E-04    0.824E-03
DAV:  19    -0.439173941345E+02   -0.10958E-06   -0.17670E-07 28168   0.907E-04    0.301E-03
DAV:  20    -0.439173941820E+02   -0.47523E-07   -0.32001E-08 28476   0.361E-04    0.150E-03
DAV:  21    -0.439173941520E+02    0.30041E-07   -0.16785E-09 17640   0.145E-04    0.181E-03
DAV:  22    -0.439173942132E+02   -0.61160E-07   -0.66077E-09 16716   0.148E-04    0.439E-04
DAV:  23    -0.439173942264E+02   -0.13220E-07   -0.15846E-09 17780   0.845E-05    0.221E-04
DAV:  24    -0.439173942290E+02   -0.26193E-08   -0.26337E-10 16772   0.376E-05
   1 F= -.43917394E+02 E0= -.43917394E+02  d E =-.451115E-12
