unknown system                          
           1
    -0.000003    6.484587    6.484589
     6.484594    0.000005    6.484593
     6.484602    6.484599    0.000006
   Cd   Te
     8     8
Direct configuration=     1
   0.00000278  0.00000316  0.99999723
   0.50000278  0.00000316  0.99999723
   0.00000278  0.50000316  0.99999723
   0.50000278  0.50000316  0.99999723
   0.00000278  0.00000316  0.49999723
   0.50000278  0.00000316  0.49999723
   0.00000278  0.50000316  0.49999723
   0.50000278  0.50000316  0.49999723
   0.37608766  0.37499684  0.37500277
   0.87499722  0.37499684  0.37500277
   0.37499722  0.87499684  0.37500277
   0.87499722  0.87499684  0.37500277
   0.37499722  0.37499684  0.87500277
   0.87499722  0.37499684  0.87500277
   0.37499722  0.87499684  0.87500277
   0.87499722  0.87499684  0.87500277
