nqpoint: 510    
npath: 10     
segment_nqpoint:
- 51
- 51
- 51
- 51
- 51
- 51
- 51
- 51
- 51
- 51
labels:
- [ 'G', 'X' ]
- [ 'X', 'W' ]
- [ 'W', 'K' ]
- [ 'K', 'G' ]
- [ 'G', 'L' ]
- [ 'L', 'U' ]
- [ 'U', 'W' ]
- [ 'W', 'L' ]
- [ 'L', 'K:' ]
- [ 'U', 'X' ]
reciprocal_lattice:
- [  -0.15421184,   0.15421176,   0.15421176 ] # a*
- [   0.15421159,  -0.15421181,   0.15421185 ] # b*
- [   0.15421146,   0.15421172,  -0.15421160 ] # c*
natom: 2      
lattice:
- [    -0.000001700000000,     3.242293520000000,     3.242294400000000 ] # a
- [     3.242297240000000,     0.000002270000000,     3.242296620000000 ] # b
- [     3.242300790000000,     3.242299280000000,     0.000003170000000 ] # c
points:
- symbol: Cd # 1
  coordinates: [  0.000005570000000,  0.000006320000000,  0.999994450000000 ]
  mass: 112.411000
- symbol: Te # 2
  coordinates: [  0.749994430000000,  0.749993680000000,  0.750005550000000 ]
  mass: 127.600000

phonon:
- q-position: [    0.0000000,    0.0000000,    0.0000000 ]
  distance:    0.0000000
  band:
  - # 1
    frequency:   -0.0000000851
  - # 2
    frequency:   -0.0000000282
  - # 3
    frequency:    0.0000000707
  - # 4
    frequency:    4.2916281455
  - # 5
    frequency:    4.2916287564
  - # 6
    frequency:    4.9323452996

- q-position: [    0.0100000,    0.0000000,    0.0100000 ]
  distance:    0.0030842
  band:
  - # 1
    frequency:    0.0328636811
  - # 2
    frequency:    0.0346951485
  - # 3
    frequency:    0.0957839216
  - # 4
    frequency:    4.2917483304
  - # 5
    frequency:    4.2917645742
  - # 6
    frequency:    4.9319522840

- q-position: [    0.0200000,    0.0000000,    0.0200000 ]
  distance:    0.0061685
  band:
  - # 1
    frequency:    0.0656932653
  - # 2
    frequency:    0.0693445057
  - # 3
    frequency:    0.1915138555
  - # 4
    frequency:    4.2921081214
  - # 5
    frequency:    4.2921728985
  - # 6
    frequency:    4.9307732324

- q-position: [    0.0300000,    0.0000000,    0.0300000 ]
  distance:    0.0092527
  band:
  - # 1
    frequency:    0.0984542381
  - # 2
    frequency:    0.1039026210
  - # 3
    frequency:    0.2871358968
  - # 4
    frequency:    4.2927083104
  - # 5
    frequency:    4.2928532458
  - # 6
    frequency:    4.9288081270

- q-position: [    0.0400000,    0.0000000,    0.0400000 ]
  distance:    0.0123369
  band:
  - # 1
    frequency:    0.1311121800
  - # 2
    frequency:    0.1383238549
  - # 3
    frequency:    0.3825963046
  - # 4
    frequency:    4.2935496890
  - # 5
    frequency:    4.2938052963
  - # 6
    frequency:    4.9260569245

- q-position: [    0.0500000,    0.0000000,    0.0500000 ]
  distance:    0.0154212
  band:
  - # 1
    frequency:    0.1636324705
  - # 2
    frequency:    0.1725626247
  - # 3
    frequency:    0.4778415842
  - # 4
    frequency:    4.2946333081
  - # 5
    frequency:    4.2950285715
  - # 6
    frequency:    4.9225195377

- q-position: [    0.0600000,    0.0000000,    0.0600000 ]
  distance:    0.0185054
  band:
  - # 1
    frequency:    0.1959802627
  - # 2
    frequency:    0.2065734166
  - # 3
    frequency:    0.5728185689
  - # 4
    frequency:    4.2959604262
  - # 5
    frequency:    4.2965223973
  - # 6
    frequency:    4.9181958087

- q-position: [    0.0700000,    0.0000000,    0.0700000 ]
  distance:    0.0215896
  band:
  - # 1
    frequency:    0.2281204555
  - # 2
    frequency:    0.2403108244
  - # 3
    frequency:    0.6674745016
  - # 4
    frequency:    4.2975324416
  - # 5
    frequency:    4.2982858592
  - # 6
    frequency:    4.9130854759

- q-position: [    0.0800000,    0.0000000,    0.0800000 ]
  distance:    0.0246739
  band:
  - # 1
    frequency:    0.2600176811
  - # 2
    frequency:    0.2737296055
  - # 3
    frequency:    0.7617571154
  - # 4
    frequency:    4.2993508083
  - # 5
    frequency:    4.3003177486
  - # 6
    frequency:    4.9071881353

- q-position: [    0.0900000,    0.0000000,    0.0900000 ]
  distance:    0.0277581
  band:
  - # 1
    frequency:    0.2916363098
  - # 2
    frequency:    0.3067847558
  - # 3
    frequency:    0.8556147143
  - # 4
    frequency:    4.3014169380
  - # 5
    frequency:    4.3026165000
  - # 6
    frequency:    4.9005031969

- q-position: [    0.1000000,    0.0000000,    0.1000000 ]
  distance:    0.0308423
  band:
  - # 1
    frequency:    0.3229404754
  - # 2
    frequency:    0.3394316029
  - # 3
    frequency:    0.9489962531
  - # 4
    frequency:    4.3037320886
  - # 5
    frequency:    4.3051801190
  - # 6
    frequency:    4.8930298369

- q-position: [    0.1100000,    0.0000000,    0.1100000 ]
  distance:    0.0339266
  band:
  - # 1
    frequency:    0.3538941225
  - # 2
    frequency:    0.3716259204
  - # 3
    frequency:    1.0418514166
  - # 4
    frequency:    4.3062972380
  - # 5
    frequency:    4.3080061023
  - # 6
    frequency:    4.8847669466

- q-position: [    0.1200000,    0.0000000,    0.1200000 ]
  distance:    0.0370108
  band:
  - # 1
    frequency:    0.3844610757
  - # 2
    frequency:    0.4033240629
  - # 3
    frequency:    1.1341306981
  - # 4
    frequency:    4.3091129471
  - # 5
    frequency:    4.3110913503
  - # 6
    frequency:    4.8757130803

- q-position: [    0.1300000,    0.0000000,    0.1300000 ]
  distance:    0.0400951
  band:
  - # 1
    frequency:    0.4146051311
  - # 2
    frequency:    0.4344831208
  - # 3
    frequency:    1.2257854768
  - # 4
    frequency:    4.3121792105
  - # 5
    frequency:    4.3144320731
  - # 6
    frequency:    4.8658664016

- q-position: [    0.1400000,    0.0000000,    0.1400000 ]
  distance:    0.0431793
  band:
  - # 1
    frequency:    0.4442901702
  - # 2
    frequency:    0.4650610947
  - # 3
    frequency:    1.3167680947
  - # 4
    frequency:    4.3154952984
  - # 5
    frequency:    4.3180236911
  - # 6
    frequency:    4.8552246313

- q-position: [    0.1500000,    0.0000000,    0.1500000 ]
  distance:    0.0462635
  band:
  - # 1
    frequency:    0.4734802933
  - # 2
    frequency:    0.4950170878
  - # 3
    frequency:    1.4070319316
  - # 4
    frequency:    4.3190595899
  - # 5
    frequency:    4.3218607322
  - # 6
    frequency:    4.8437849971

- q-position: [    0.1600000,    0.0000000,    0.1600000 ]
  distance:    0.0493478
  band:
  - # 1
    frequency:    0.5021399730
  - # 2
    frequency:    0.5243115118
  - # 3
    frequency:    1.4965314797
  - # 4
    frequency:    4.3228694011
  - # 5
    frequency:    4.3259367258
  - # 6
    frequency:    4.8315441865

- q-position: [    0.1700000,    0.0000000,    0.1700000 ]
  distance:    0.0524320
  band:
  - # 1
    frequency:    0.5302342221
  - # 2
    frequency:    0.5529063064
  - # 3
    frequency:    1.5852224159
  - # 4
    frequency:    4.3269208093
  - # 5
    frequency:    4.3302440975
  - # 6
    frequency:    4.8184983056

- q-position: [    0.1800000,    0.0000000,    0.1800000 ]
  distance:    0.0555162
  band:
  - # 1
    frequency:    0.5577287764
  - # 2
    frequency:    0.5807651650
  - # 3
    frequency:    1.6730616734
  - # 4
    frequency:    4.3312084757
  - # 5
    frequency:    4.3347740653
  - # 6
    frequency:    4.8046428451

- q-position: [    0.1900000,    0.0000000,    0.1900000 ]
  distance:    0.0586005
  band:
  - # 1
    frequency:    0.5845902858
  - # 2
    frequency:    0.6078537650
  - # 3
    frequency:    1.7600075108
  - # 4
    frequency:    4.3357254690
  - # 5
    frequency:    4.3395165400
  - # 6
    frequency:    4.7899726550

- q-position: [    0.2000000,    0.0000000,    0.2000000 ]
  distance:    0.0616847
  band:
  - # 1
    frequency:    0.6107865114
  - # 2
    frequency:    0.6341399962
  - # 3
    frequency:    1.8460195793
  - # 4
    frequency:    4.3404630917
  - # 5
    frequency:    4.3444600324
  - # 6
    frequency:    4.7744819329

- q-position: [    0.2100000,    0.0000000,    0.2100000 ]
  distance:    0.0647689
  band:
  - # 1
    frequency:    0.6362865243
  - # 2
    frequency:    0.6595941821
  - # 3
    frequency:    1.9310589884
  - # 4
    frequency:    4.3454107089
  - # 5
    frequency:    4.3495915695
  - # 6
    frequency:    4.7581642279

- q-position: [    0.2200000,    0.0000000,    0.2200000 ]
  distance:    0.0678532
  band:
  - # 1
    frequency:    0.6610609002
  - # 2
    frequency:    0.6841892889
  - # 3
    frequency:    2.0150883679
  - # 4
    frequency:    4.3505555790
  - # 5
    frequency:    4.3548966228
  - # 6
    frequency:    4.7410124686

- q-position: [    0.2300000,    0.0000000,    0.2300000 ]
  distance:    0.0709374
  band:
  - # 1
    frequency:    0.6850819070
  - # 2
    frequency:    0.7079011172
  - # 3
    frequency:    2.0980719284
  - # 4
    frequency:    4.3558826819
  - # 5
    frequency:    4.3603590508
  - # 6
    frequency:    4.7230190229

- q-position: [    0.2400000,    0.0000000,    0.2400000 ]
  distance:    0.0740216
  band:
  - # 1
    frequency:    0.7083236788
  - # 2
    frequency:    0.7307084692
  - # 3
    frequency:    2.1799755177
  - # 4
    frequency:    4.3613745315
  - # 5
    frequency:    4.3659610570
  - # 6
    frequency:    4.7041758069

- q-position: [    0.2500000,    0.0000000,    0.2500000 ]
  distance:    0.0771059
  band:
  - # 1
    frequency:    0.7307623739
  - # 2
    frequency:    0.7525932878
  - # 3
    frequency:    2.2607666745
  - # 4
    frequency:    4.3670109506
  - # 5
    frequency:    4.3716831665
  - # 6
    frequency:    4.6844744719

- q-position: [    0.2600000,    0.0000000,    0.2600000 ]
  distance:    0.0801901
  band:
  - # 1
    frequency:    0.7523763100
  - # 2
    frequency:    0.7735407615
  - # 3
    frequency:    2.3404146784
  - # 4
    frequency:    4.3727687601
  - # 5
    frequency:    4.3775042195
  - # 6
    frequency:    4.6639067215

- q-position: [    0.2700000,    0.0000000,    0.2700000 ]
  distance:    0.0832743
  band:
  - # 1
    frequency:    0.7731460756
  - # 2
    frequency:    0.7935393919
  - # 3
    frequency:    2.4188905950
  - # 4
    frequency:    4.3786212852
  - # 5
    frequency:    4.3834013823
  - # 6
    frequency:    4.6424648619

- q-position: [    0.2800000,    0.0000000,    0.2800000 ]
  distance:    0.0863586
  band:
  - # 1
    frequency:    0.7930546114
  - # 2
    frequency:    0.8125810191
  - # 3
    frequency:    2.4961673176
  - # 4
    frequency:    4.3845374712
  - # 5
    frequency:    4.3893501703
  - # 6
    frequency:    4.6201428002

- q-position: [    0.2900000,    0.0000000,    0.2900000 ]
  distance:    0.0894428
  band:
  - # 1
    frequency:    0.8120872614
  - # 2
    frequency:    0.8306608033
  - # 3
    frequency:    2.5722196034
  - # 4
    frequency:    4.3904801390
  - # 5
    frequency:    4.3953244743
  - # 6
    frequency:    4.5969379738

- q-position: [    0.3000000,    0.0000000,    0.3000000 ]
  distance:    0.0925270
  band:
  - # 1
    frequency:    0.8302317900
  - # 2
    frequency:    0.8477771605
  - # 3
    frequency:    2.6470241041
  - # 4
    frequency:    4.3964022048
  - # 5
    frequency:    4.4012965717
  - # 6
    frequency:    4.5728554037

- q-position: [    0.3100000,    0.0000000,    0.3100000 ]
  distance:    0.0956113
  band:
  - # 1
    frequency:    0.8474783643
  - # 2
    frequency:    0.8639316513
  - # 3
    frequency:    2.7205593911
  - # 4
    frequency:    4.4022375619
  - # 5
    frequency:    4.4072370820
  - # 6
    frequency:    4.5479172132

- q-position: [    0.3200000,    0.0000000,    0.3200000 ]
  distance:    0.0986955
  band:
  - # 1
    frequency:    0.8638195018
  - # 2
    frequency:    0.8791288241
  - # 3
    frequency:    2.7928059741
  - # 4
    frequency:    4.4078757330
  - # 5
    frequency:    4.4131147910
  - # 6
    frequency:    4.5221885792

- q-position: [    0.3300000,    0.0000000,    0.3300000 ]
  distance:    0.1017797
  band:
  - # 1
    frequency:    0.8792499830
  - # 2
    frequency:    0.8933760129
  - # 3
    frequency:    2.8637463126
  - # 4
    frequency:    4.4130753849
  - # 5
    frequency:    4.4188961885
  - # 6
    frequency:    4.4958651733

- q-position: [    0.3400000,    0.0000000,    0.3400000 ]
  distance:    0.1048640
  band:
  - # 1
    frequency:    0.8937667307
  - # 2
    frequency:    0.9066830937
  - # 3
    frequency:    2.9333648189
  - # 4
    frequency:    4.4170627114
  - # 5
    frequency:    4.4245444814
  - # 6
    frequency:    4.4696763228

- q-position: [    0.3500000,    0.0000000,    0.3500000 ]
  distance:    0.1079482
  band:
  - # 1
    frequency:    0.9073686579
  - # 2
    frequency:    0.9190622023
  - # 3
    frequency:    3.0016478531
  - # 4
    frequency:    4.4159199839
  - # 5
    frequency:    4.4300182467
  - # 6
    frequency:    4.4474984187

- q-position: [    0.3600000,    0.0000000,    0.3600000 ]
  distance:    0.1110325
  band:
  - # 1
    frequency:    0.9200564868
  - # 2
    frequency:    0.9305274171
  - # 3
    frequency:    3.0685837068
  - # 4
    frequency:    4.3986600463
  - # 5
    frequency:    4.4352743319
  - # 6
    frequency:    4.4402781818

- q-position: [    0.3700000,    0.0000000,    0.3700000 ]
  distance:    0.1141167
  band:
  - # 1
    frequency:    0.9318325434
  - # 2
    frequency:    0.9410944149
  - # 3
    frequency:    3.1341625744
  - # 4
    frequency:    4.3706863171
  - # 5
    frequency:    4.4402934957
  - # 6
    frequency:    4.4425477242

- q-position: [    0.3800000,    0.0000000,    0.3800000 ]
  distance:    0.1172009
  band:
  - # 1
    frequency:    0.9427005306
  - # 2
    frequency:    0.9507801020
  - # 3
    frequency:    3.1983765078
  - # 4
    frequency:    4.3395450279
  - # 5
    frequency:    4.4451077521
  - # 6
    frequency:    4.4466457076

- q-position: [    0.3900000,    0.0000000,    0.3900000 ]
  distance:    0.1202852
  band:
  - # 1
    frequency:    0.9526652852
  - # 2
    frequency:    0.9596022303
  - # 3
    frequency:    3.2612193500
  - # 4
    frequency:    4.3067183725
  - # 5
    frequency:    4.4497335436
  - # 6
    frequency:    4.4509917930

- q-position: [    0.4000000,    0.0000000,    0.4000000 ]
  distance:    0.1233694
  band:
  - # 1
    frequency:    0.9617325238
  - # 2
    frequency:    0.9675790034
  - # 3
    frequency:    3.3226866349
  - # 4
    frequency:    4.2725444299
  - # 5
    frequency:    4.4541333098
  - # 6
    frequency:    4.4552059537

- q-position: [    0.4100000,    0.0000000,    0.4100000 ]
  distance:    0.1264536
  band:
  - # 1
    frequency:    0.9699085823
  - # 2
    frequency:    0.9747286808
  - # 3
    frequency:    3.3827754362
  - # 4
    frequency:    4.2371263794
  - # 5
    frequency:    4.4582546465
  - # 6
    frequency:    4.4591609457

- q-position: [    0.4200000,    0.0000000,    0.4200000 ]
  distance:    0.1295379
  band:
  - # 1
    frequency:    0.9772001552
  - # 2
    frequency:    0.9810691861
  - # 3
    frequency:    3.4414841251
  - # 4
    frequency:    4.2004984517
  - # 5
    frequency:    4.4620509516
  - # 6
    frequency:    4.4627966264

- q-position: [    0.4300000,    0.0000000,    0.4300000 ]
  distance:    0.1326221
  band:
  - # 1
    frequency:    0.9836140394
  - # 2
    frequency:    0.9866177286
  - # 3
    frequency:    3.4988119549
  - # 4
    frequency:    4.1626697374
  - # 5
    frequency:    4.4654835371
  - # 6
    frequency:    4.4660750899

- q-position: [    0.4400000,    0.0000000,    0.4400000 ]
  distance:    0.1357063
  band:
  - # 1
    frequency:    0.9891568874
  - # 2
    frequency:    0.9913904433
  - # 3
    frequency:    3.5547582781
  - # 4
    frequency:    4.1236395779
  - # 5
    frequency:    4.4685202158
  - # 6
    frequency:    4.4689680723

- q-position: [    0.4500000,    0.0000000,    0.4500000 ]
  distance:    0.1387906
  band:
  - # 1
    frequency:    0.9938349751
  - # 2
    frequency:    0.9954020575
  - # 3
    frequency:    3.6093208976
  - # 4
    frequency:    4.0834050635
  - # 5
    frequency:    4.4711340802
  - # 6
    frequency:    4.4714528760

- q-position: [    0.4600000,    0.0000000,    0.4600000 ]
  distance:    0.1418748
  band:
  - # 1
    frequency:    0.9976539849
  - # 2
    frequency:    0.9986655938
  - # 3
    frequency:    3.6624920565
  - # 4
    frequency:    4.0419676970
  - # 5
    frequency:    4.4733028003
  - # 6
    frequency:    4.4735109116

- q-position: [    0.4700000,    0.0000000,    0.4700000 ]
  distance:    0.1449590
  band:
  - # 1
    frequency:    1.0006187963
  - # 2
    frequency:    1.0011921265
  - # 3
    frequency:    3.7142466315
  - # 4
    frequency:    3.9993465236
  - # 5
    frequency:    4.4750082687
  - # 6
    frequency:    4.4751271602

- q-position: [    0.4800000,    0.0000000,    0.4800000 ]
  distance:    0.1480433
  band:
  - # 1
    frequency:    1.0027332055
  - # 2
    frequency:    1.0029906793
  - # 3
    frequency:    3.7644957929
  - # 4
    frequency:    3.9556251766
  - # 5
    frequency:    4.4762364279
  - # 6
    frequency:    4.4762900004

- q-position: [    0.4900000,    0.0000000,    0.4900000 ]
  distance:    0.1511275
  band:
  - # 1
    frequency:    1.0039986054
  - # 2
    frequency:    1.0040692399
  - # 3
    frequency:    3.8127776861
  - # 4
    frequency:    3.9112615897
  - # 5
    frequency:    4.4769770413
  - # 6
    frequency:    4.4769913289

- q-position: [    0.5000000,    0.0000000,    0.5000000 ]
  distance:    0.1542117
  band:
  - # 1
    frequency:    1.0044097132
  - # 2
    frequency:    1.0044388095
  - # 3
    frequency:    3.8489018240
  - # 4
    frequency:    3.8764438231
  - # 5
    frequency:    4.4772226502
  - # 6
    frequency:    4.4772275910

- q-position: [    0.5000000,    0.0000000,    0.5000000 ]
  distance:    0.1542117
  band:
  - # 1
    frequency:    1.0044097132
  - # 2
    frequency:    1.0044388095
  - # 3
    frequency:    3.8489018240
  - # 4
    frequency:    3.8764438231
  - # 5
    frequency:    4.4772226502
  - # 6
    frequency:    4.4772275910

- q-position: [    0.5000000,    0.0050000,    0.5050000 ]
  distance:    0.1557539
  band:
  - # 1
    frequency:    1.0047674702
  - # 2
    frequency:    1.0052692622
  - # 3
    frequency:    3.8487323506
  - # 4
    frequency:    3.8760122128
  - # 5
    frequency:    4.4772895198
  - # 6
    frequency:    4.4774134331

- q-position: [    0.5000000,    0.0100000,    0.5100000 ]
  distance:    0.1572960
  band:
  - # 1
    frequency:    1.0058387680
  - # 2
    frequency:    1.0077548214
  - # 3
    frequency:    3.8482241690
  - # 4
    frequency:    3.8747203809
  - # 5
    frequency:    4.4774796466
  - # 6
    frequency:    4.4779789523

- q-position: [    0.5000000,    0.0150000,    0.5150000 ]
  distance:    0.1588381
  band:
  - # 1
    frequency:    1.0076178659
  - # 2
    frequency:    1.0118780737
  - # 3
    frequency:    3.8473778525
  - # 4
    frequency:    3.8725773961
  - # 5
    frequency:    4.4777951248
  - # 6
    frequency:    4.4789146608

- q-position: [    0.5000000,    0.0200000,    0.5200000 ]
  distance:    0.1603802
  band:
  - # 1
    frequency:    1.0100952452
  - # 2
    frequency:    1.0176104768
  - # 3
    frequency:    3.8461937873
  - # 4
    frequency:    3.8695987097
  - # 5
    frequency:    4.4782339667
  - # 6
    frequency:    4.4802104610

- q-position: [    0.5000000,    0.0250000,    0.5250000 ]
  distance:    0.1619223
  band:
  - # 1
    frequency:    1.0132577293
  - # 2
    frequency:    1.0249130019
  - # 3
    frequency:    3.8446709588
  - # 4
    frequency:    3.8658070388
  - # 5
    frequency:    4.4787933996
  - # 6
    frequency:    4.4818526889

- q-position: [    0.5000000,    0.0300000,    0.5300000 ]
  distance:    0.1634644
  band:
  - # 1
    frequency:    1.0170886297
  - # 2
    frequency:    1.0337369950
  - # 3
    frequency:    3.8428041244
  - # 4
    frequency:    3.8612347625
  - # 5
    frequency:    4.4794699207
  - # 6
    frequency:    4.4838245023

- q-position: [    0.5000000,    0.0350000,    0.5350000 ]
  distance:    0.1650065
  band:
  - # 1
    frequency:    1.0215679249
  - # 2
    frequency:    1.0440251975
  - # 3
    frequency:    3.8405765603
  - # 4
    frequency:    3.8559306721
  - # 5
    frequency:    4.4802593442
  - # 6
    frequency:    4.4861063527

- q-position: [    0.5000000,    0.0400000,    0.5400000 ]
  distance:    0.1665487
  band:
  - # 1
    frequency:    1.0266724691
  - # 2
    frequency:    1.0557128710
  - # 3
    frequency:    3.8379384665
  - # 4
    frequency:    3.8499810203
  - # 5
    frequency:    4.4811568545
  - # 6
    frequency:    4.4886764971

- q-position: [    0.5000000,    0.0450000,    0.5450000 ]
  distance:    0.1680908
  band:
  - # 1
    frequency:    1.0323762234
  - # 2
    frequency:    1.0687289735
  - # 3
    frequency:    3.8347311082
  - # 4
    frequency:    3.8435848201
  - # 5
    frequency:    4.4821570657
  - # 6
    frequency:    4.4915115209

- q-position: [    0.5000000,    0.0500000,    0.5500000 ]
  distance:    0.1696329
  band:
  - # 1
    frequency:    1.0386505057
  - # 2
    frequency:    1.0829973352
  - # 3
    frequency:    3.8304331101
  - # 4
    frequency:    3.8373070039
  - # 5
    frequency:    4.4832540848
  - # 6
    frequency:    4.4945868483

- q-position: [    0.5000000,    0.0550000,    0.5550000 ]
  distance:    0.1711750
  band:
  - # 1
    frequency:    1.0454642524
  - # 2
    frequency:    1.0984377913
  - # 3
    frequency:    3.8241404565
  - # 4
    frequency:    3.8320979100
  - # 5
    frequency:    4.4844415780
  - # 6
    frequency:    4.4978772189

- q-position: [    0.5000000,    0.0600000,    0.5600000 ]
  distance:    0.1727171
  band:
  - # 1
    frequency:    1.0527842853
  - # 2
    frequency:    1.1149672370
  - # 3
    frequency:    3.8160472293
  - # 4
    frequency:    3.8278120797
  - # 5
    frequency:    4.4857128384
  - # 6
    frequency:    4.5013571183

- q-position: [    0.5000000,    0.0650000,    0.5650000 ]
  distance:    0.1742592
  band:
  - # 1
    frequency:    1.0605755815
  - # 2
    frequency:    1.1325005778
  - # 3
    frequency:    3.8068968514
  - # 4
    frequency:    3.8237566094
  - # 5
    frequency:    4.4870608533
  - # 6
    frequency:    4.5050011518

- q-position: [    0.5000000,    0.0700000,    0.5700000 ]
  distance:    0.1758014
  band:
  - # 1
    frequency:    1.0688015381
  - # 2
    frequency:    1.1509515603
  - # 3
    frequency:    3.7970191324
  - # 4
    frequency:    3.8196537646
  - # 5
    frequency:    4.4884783707
  - # 6
    frequency:    4.5087843585

- q-position: [    0.5000000,    0.0750000,    0.5750000 ]
  distance:    0.1773435
  band:
  - # 1
    frequency:    1.0774242302
  - # 2
    frequency:    1.1702334756
  - # 3
    frequency:    3.7865482024
  - # 4
    frequency:    3.8154227709
  - # 5
    frequency:    4.4899579631
  - # 6
    frequency:    4.5126824650

- q-position: [    0.5000000,    0.0800000,    0.5800000 ]
  distance:    0.1788856
  band:
  - # 1
    frequency:    1.0864046588
  - # 2
    frequency:    1.1902597332
  - # 3
    frequency:    3.7755592154
  - # 4
    frequency:    3.8110428993
  - # 5
    frequency:    4.4914920882
  - # 6
    frequency:    4.5166720820

- q-position: [    0.5000000,    0.0850000,    0.5850000 ]
  distance:    0.1804277
  band:
  - # 1
    frequency:    1.0957029847
  - # 2
    frequency:    1.2109443118
  - # 3
    frequency:    3.7641072792
  - # 4
    frequency:    3.8065143832
  - # 5
    frequency:    4.4930731456
  - # 6
    frequency:    4.5207308493

- q-position: [    0.5000000,    0.0900000,    0.5900000 ]
  distance:    0.1819698
  band:
  - # 1
    frequency:    1.1052787484
  - # 2
    frequency:    1.2322020943
  - # 3
    frequency:    3.7522395681
  - # 4
    frequency:    3.8018462043
  - # 5
    frequency:    4.4946935289
  - # 6
    frequency:    4.5248375349

- q-position: [    0.5000000,    0.0950000,    0.5950000 ]
  distance:    0.1835119
  band:
  - # 1
    frequency:    1.1150910738
  - # 2
    frequency:    1.2539490996
  - # 3
    frequency:    3.7399997669
  - # 4
    frequency:    3.7970515938
  - # 5
    frequency:    4.4963456735
  - # 6
    frequency:    4.5289720945

- q-position: [    0.5000000,    0.1000000,    0.6000000 ]
  distance:    0.1850540
  band:
  - # 1
    frequency:    1.1250988561
  - # 2
    frequency:    1.2761026229
  - # 3
    frequency:    3.7274299683
  - # 4
    frequency:    3.7921461169
  - # 5
    frequency:    4.4980220989
  - # 6
    frequency:    4.5331156998

- q-position: [    0.5000000,    0.1050000,    0.6050000 ]
  distance:    0.1865962
  band:
  - # 1
    frequency:    1.1352609335
  - # 2
    frequency:    1.2985812975
  - # 3
    frequency:    3.7145716082
  - # 4
    frequency:    3.7871467521
  - # 5
    frequency:    4.4997154463
  - # 6
    frequency:    4.5372507401

- q-position: [    0.5000000,    0.1100000,    0.6100000 ]
  distance:    0.1881383
  band:
  - # 1
    frequency:    1.1455362433
  - # 2
    frequency:    1.3213050930
  - # 3
    frequency:    3.7014659965
  - # 4
    frequency:    3.7820713969
  - # 5
    frequency:    4.5014185114
  - # 6
    frequency:    4.5413608036

- q-position: [    0.5000000,    0.1150000,    0.6150000 ]
  distance:    0.1896804
  band:
  - # 1
    frequency:    1.1558839639
  - # 2
    frequency:    1.3441952605
  - # 3
    frequency:    3.6881546658
  - # 4
    frequency:    3.7769385756
  - # 5
    frequency:    4.5031242722
  - # 6
    frequency:    4.5454306444

- q-position: [    0.5000000,    0.1200000,    0.6200000 ]
  distance:    0.1912225
  band:
  - # 1
    frequency:    1.1662636431
  - # 2
    frequency:    1.3671742372
  - # 3
    frequency:    3.6746796275
  - # 4
    frequency:    3.7717672486
  - # 5
    frequency:    4.5048259127
  - # 6
    frequency:    4.5494461372

- q-position: [    0.5000000,    0.1250000,    0.6250000 ]
  distance:    0.1927646
  band:
  - # 1
    frequency:    1.1766353146
  - # 2
    frequency:    1.3901655226
  - # 3
    frequency:    3.6610835808
  - # 4
    frequency:    3.7665766766
  - # 5
    frequency:    4.5065168425
  - # 6
    frequency:    4.5533942259

- q-position: [    0.5000000,    0.1300000,    0.6300000 ]
  distance:    0.1943067
  band:
  - # 1
    frequency:    1.1869596036
  - # 2
    frequency:    1.4130935341
  - # 3
    frequency:    3.6474100892
  - # 4
    frequency:    3.7613863147
  - # 5
    frequency:    4.5081907120
  - # 6
    frequency:    4.5572628667

- q-position: [    0.5000000,    0.1350000,    0.6350000 ]
  distance:    0.1958489
  band:
  - # 1
    frequency:    1.1971978244
  - # 2
    frequency:    1.4358834545
  - # 3
    frequency:    3.6337037351
  - # 4
    frequency:    3.7562157247
  - # 5
    frequency:    4.5098414250
  - # 6
    frequency:    4.5610409692

- q-position: [    0.5000000,    0.1400000,    0.6400000 ]
  distance:    0.1973910
  band:
  - # 1
    frequency:    1.2073120691
  - # 2
    frequency:    1.4584610773
  - # 3
    frequency:    3.6200102517
  - # 4
    frequency:    3.7510844968
  - # 5
    frequency:    4.5114631479
  - # 6
    frequency:    4.5647183369

- q-position: [    0.5000000,    0.1450000,    0.6450000 ]
  distance:    0.1989331
  band:
  - # 1
    frequency:    1.2172652913
  - # 2
    frequency:    1.4807526611
  - # 3
    frequency:    3.6063766330
  - # 4
    frequency:    3.7460121768
  - # 5
    frequency:    4.5130503161
  - # 6
    frequency:    4.5682856090

- q-position: [    0.5000000,    0.1500000,    0.6500000 ]
  distance:    0.2004752
  band:
  - # 1
    frequency:    1.2270213850
  - # 2
    frequency:    1.5026847997
  - # 3
    frequency:    3.5928512167
  - # 4
    frequency:    3.7410181956
  - # 5
    frequency:    4.5145976382
  - # 6
    frequency:    4.5717342027

- q-position: [    0.5000000,    0.1550000,    0.6550000 ]
  distance:    0.2020173
  band:
  - # 1
    frequency:    1.2365452589
  - # 2
    frequency:    1.5241843169
  - # 3
    frequency:    3.5794837367
  - # 4
    frequency:    3.7361218003
  - # 5
    frequency:    4.5161000984
  - # 6
    frequency:    4.5750562594

- q-position: [    0.5000000,    0.1600000,    0.6600000 ]
  distance:    0.2035594
  band:
  - # 1
    frequency:    1.2458029097
  - # 2
    frequency:    1.5451781955
  - # 3
    frequency:    3.5663253377
  - # 4
    frequency:    3.7313419841
  - # 5
    frequency:    4.5175529570
  - # 6
    frequency:    4.5782445929

- q-position: [    0.5000000,    0.1650000,    0.6650000 ]
  distance:    0.2051015
  band:
  - # 1
    frequency:    1.2547614927
  - # 2
    frequency:    1.5655935472
  - # 3
    frequency:    3.5534285479
  - # 4
    frequency:    3.7266974154
  - # 5
    frequency:    4.5189517494
  - # 6
    frequency:    4.5812926412

- q-position: [    0.5000000,    0.1700000,    0.6700000 ]
  distance:    0.2066437
  band:
  - # 1
    frequency:    1.2633893918
  - # 2
    frequency:    1.5853576343
  - # 3
    frequency:    3.5408471991
  - # 4
    frequency:    3.7222063653
  - # 5
    frequency:    4.5202922844
  - # 6
    frequency:    4.5841944214

- q-position: [    0.5000000,    0.1750000,    0.6750000 ]
  distance:    0.2081858
  band:
  - # 1
    frequency:    1.2716562894
  - # 2
    frequency:    1.6043979497
  - # 3
    frequency:    3.5286362898
  - # 4
    frequency:    3.7178866336
  - # 5
    frequency:    4.5215706414
  - # 6
    frequency:    4.5869444880

- q-position: [    0.5000000,    0.1800000,    0.6800000 ]
  distance:    0.2097279
  band:
  - # 1
    frequency:    1.2795332357
  - # 2
    frequency:    1.6226423657
  - # 3
    frequency:    3.5168517820
  - # 4
    frequency:    3.7137554730
  - # 5
    frequency:    4.5227831668
  - # 6
    frequency:    4.5895378951

- q-position: [    0.5000000,    0.1850000,    0.6850000 ]
  distance:    0.2112700
  band:
  - # 1
    frequency:    1.2869927181
  - # 2
    frequency:    1.6400193566
  - # 3
    frequency:    3.5055503254
  - # 4
    frequency:    3.7098295123
  - # 5
    frequency:    4.5239264700