   2   16
1 1
     4.908120805052573    -0.001229845158495    -0.000000000424549
    -0.001229845158495     4.908120802708416    -0.000000001010437
    -0.000000000424549    -0.000000001010437     4.908125083910957
1 2
     0.437305652300954     0.000017919152294     0.000024018642301
     0.000017919152294    -0.300986495842595    -0.320918222710290
     0.000024018642301    -0.320918222710290    -0.300979173696601
1 3
    -0.300986189044458     0.000017062037025    -0.320918222741163
     0.000017062037025     0.437305652365203     0.000023359831050
    -0.320918222741163     0.000023359831050    -0.300979480558987
1 4
    -0.300964747536997     0.320879322246547    -0.000000495823128
     0.320879322246547    -0.300964135922751     0.000000010506758
    -0.000000495823128     0.000000010506758     0.437299364319576
1 5
    -0.300968997963026    -0.320924978803175    -0.000000715561154
    -0.320924978803175    -0.300969609665173    -0.000000516040461
    -0.000000715561154    -0.000000516040461     0.437314747031272
1 6
    -0.300987242177089     0.000016842340352     0.320918222730313
     0.000016842340352     0.437305652381240    -0.000022854300213
     0.320918222730313    -0.000022854300213    -0.300978427442394
1 7
     0.437305652378646     0.000017392594217    -0.000022807234317
     0.000017392594217    -0.300986935312986     0.320918222734481
    -0.000022807234317     0.320918222734481    -0.300978734303902
1 8
    -0.075106019878458     0.000004269543982     0.000000000002061
     0.000004269543982    -0.075106019870320     0.000000000003753
     0.000000000002061     0.000000000003753    -0.075106750788487
1 9
     0.019419540745032    -0.022910954613741    -0.022911646128075
    -0.022910954497890     0.019419475170116    -0.022911678855980
    -0.022909789786674    -0.022909822627461     0.019425202874451
1 10
     0.019417950942381     0.022907521232921     0.022906126647133
     0.022907521119115     0.019418047875836    -0.022906078117605
     0.022907894366554    -0.022907845947979     0.019412158495555
1 11
     0.019418026114559     0.022907499316113    -0.022906110939111
     0.022907499232458     0.019418016507202     0.022906115707745
    -0.022907878685797     0.022907883539745     0.019412114692012
1 12
    -1.145102049400669    -1.118977849577401     1.118943617878702
    -1.118977849588045    -1.145103112386878     1.118944149243537
     1.118942468883896     1.118943000219253    -1.145210766282644
1 13
     0.019419465560692    -0.022911007877393     0.022911630417606
    -0.022911007792431     0.019419443796277     0.022911641260241
     0.022909774103935     0.022909785030039     0.019425309432630
1 14
    -1.145594898076201     1.119580492374155    -1.119416416771168
     1.119580492377450    -1.145595367285103     1.119416651569929
    -1.119408903773979     1.119409138550850    -1.145483408894184
1 15
    -1.145598571570193     1.119581562657839     1.119417183159142
     1.119581562686816    -1.145593834387947    -1.119414814625098
     1.119409670166370    -1.119407301605587    -1.145481268297348
1 16
    -1.145098377447747    -1.118975247468591    -1.118944383855064
    -1.118975247486867    -1.145101580130538    -1.118945985197216
    -1.118943234864197    -1.118944836173696    -1.145215970491907
9 1
     0.019419540745032    -0.022910954497890    -0.022909789786674
    -0.022910954613741     0.019419475170116    -0.022909822627461
    -0.022911646128075    -0.022911678855980     0.019425202874451
9 2
     0.019417950942381     0.022907521119115     0.022907894366554
     0.022907521232921     0.019418047875836    -0.022907845947979
     0.022906126647133    -0.022906078117605     0.019412158495555
9 3
     0.019418026114559     0.022907499232458    -0.022907878685797
     0.022907499316113     0.019418016507202     0.022907883539745
    -0.022906110939111     0.022906115707745     0.019412114692012
9 4
    -1.145102049400669    -1.118977849588045     1.118942468883896
    -1.118977849577401    -1.145103112386878     1.118943000219253
     1.118943617878702     1.118944149243537    -1.145210766282644
9 5
     0.019419465560692    -0.022911007792431     0.022909774103935
    -0.022911007877393     0.019419443796277     0.022909785030039
     0.022911630417606     0.022911641260241     0.019425309432630
9 6
    -1.145594898076201     1.119580492377450    -1.119408903773979
     1.119580492374155    -1.145595367285103     1.119409138550850
    -1.119416416771168     1.119416651569929    -1.145483408894184
9 7
    -1.145598571570193     1.119581562686816     1.119409670166370
     1.119581562657839    -1.145593834387947    -1.119407301605587
     1.119417183159142    -1.119414814625098    -1.145481268297348
9 8
    -1.145098377447747    -1.118975247486867    -1.118943234864197
    -1.118975247468591    -1.145101580130538    -1.118944836173696
    -1.118944383855064    -1.118945985197216    -1.145215970491907
9 9
     6.314346284589321    -0.001243515129118    -0.000000000421953
    -0.001243515129118     6.314346282219111    -0.000000001018616
    -0.000000000421953    -0.000000001018616     6.314341696484862
9 10
    -0.095037495983189     0.000003234864868    -0.000005640321639
     0.000003234864868    -0.403837319782923    -0.439293320042845
    -0.000005640321639    -0.439293320042845    -0.403826564864417
9 11
    -0.403836899776511     0.000002730576768    -0.439293320036711
     0.000002730576768    -0.095037495984360    -0.000006206593298
    -0.439293320036711    -0.000006206593298    -0.403826984869657
9 12
    -0.403830285304786     0.439293369767383    -0.000000102924504
     0.439293369767383    -0.403829447986211     0.000000254691765
    -0.000000102924504     0.000000254691765    -0.095060295523107
9 13
    -0.403802197116727    -0.439262578348772    -0.000000403712532
    -0.439262578348772    -0.403803034376979    -0.000000466087237
    -0.000000403712532    -0.000000466087237    -0.095015017542764
9 14
    -0.403838341371756     0.000002429780579     0.439293320021165
     0.000002429780579    -0.095037495990721     0.000006418025311
     0.439293320021165     0.000006418025311    -0.403825543268050
9 15
    -0.095037496002655     0.000002514064365     0.000006146986573
     0.000002514064365    -0.403837921354949     0.439293320039713
     0.000006146986573     0.439293320039713    -0.403825963272924
9 16
    -0.005244655901549    -0.000000201623328    -0.000000000000034
    -0.000000201623328    -0.005244655901934    -0.000000000000151
    -0.000000000000034    -0.000000000000151    -0.005244698672508