16   
4    

1    
 -0.0000000037075032   0.0070710668522759   0.0070710687714540
   0.0007520500   -0.0347061200   -0.0350616900
  -0.0000359800    0.0043972600    0.0040417400
   0.0022513300   -0.0030949400    0.0017689600
  -0.0022868100    0.0021311700   -0.0034458600
   0.0022514400    0.0021245600   -0.0034503200
  -0.0022869200   -0.0030901000    0.0017756500
  -0.0000188100   -0.0001412500   -0.0004968200
  -0.0000219900    0.0005307800    0.0001752100
   0.0003448600    0.0000246000    0.0003801400
  -0.0003021200    0.0000255100    0.0003811100
   0.0000208500   -0.0002974900    0.0000562900
  -0.0000287400    0.0001358600    0.0005907000
   0.0000208600   -0.0002993600    0.0000580000
  -0.0000287800    0.0002345500    0.0004907700
  -0.0161447700    0.0162855300    0.0166403200
   0.0155135200    0.0157394600    0.0160957900

1    
  0.0000000037075032  -0.0070710668522759  -0.0070710687714540
   0.0007346200    0.0347043800    0.0343488900
  -0.0000346400   -0.0043986500   -0.0047542600
  -0.0022870300    0.0030891900   -0.0024881300
   0.0022511100   -0.0021259100    0.0027376900
  -0.0022871400   -0.0021326000    0.0027334400
   0.0022512200    0.0030930500   -0.0024815200
  -0.0000189400    0.0001398700   -0.0002157000
  -0.0000219300   -0.0005321800   -0.0008877600
  -0.0003021500   -0.0000241000    0.0003315000
   0.0003448300   -0.0000231800    0.0003323600
   0.0000208400    0.0003007500    0.0006544200
  -0.0000277800   -0.0002329200    0.0002203400
   0.0000208500    0.0002989300    0.0006564000
  -0.0000277800   -0.0001346000    0.0001232600
   0.0155210000   -0.0157447200   -0.0153884100
  -0.0161370600   -0.0162772900   -0.0159225100

9    
 -0.0000000037075032   0.0070710668522759   0.0070710687714540
   0.0003024800    0.0000245400   -0.0003310800
  -0.0003464800    0.0000240700   -0.0003314400
  -0.0000174000   -0.0002982400   -0.0006575900
   0.0000226200    0.0002128400   -0.0001970100
  -0.0000173900   -0.0003021100   -0.0006538800
   0.0000226300    0.0001579300   -0.0001433200
  -0.0155071600    0.0157489600    0.0153925700
   0.0161506100    0.0162756000    0.0159208700
  -0.0007562600   -0.0446487800   -0.0442932900
   0.0000159100    0.0059621700    0.0063177300
   0.0031275200    0.0006727600    0.0032136500
  -0.0030848900    0.0028534700    0.0010276700
   0.0031274500    0.0028579600    0.0010281200
  -0.0030848300    0.0006718800    0.0032089200
   0.0000251600   -0.0002504400    0.0001051200
   0.0000200300    0.0000373900    0.0003929600

9    
  0.0000000037075032  -0.0070710668522759  -0.0070710687714540
  -0.0003465500   -0.0000255100   -0.0003810200
   0.0003024200   -0.0000259200   -0.0003815300
  -0.0000173900    0.0003006500   -0.0000587600
   0.0000235500   -0.0001591900   -0.0005705800
  -0.0000173800    0.0002968800   -0.0000548400
   0.0000235800   -0.0002144200   -0.0005141200
   0.0161583400   -0.0162838800   -0.0166386100
  -0.0154996500   -0.0157436200   -0.0161000100
  -0.0007738900    0.0446503500    0.0450058000
   0.0000157700   -0.0059607700   -0.0056051900
  -0.0030847400   -0.0006705800   -0.0024964300
   0.0031276700   -0.0028567400   -0.0003158800
  -0.0030846700   -0.0028518800   -0.0003148000
   0.0031276100   -0.0006712400   -0.0025010500
   0.0000253000    0.0002518500    0.0006074300
   0.0000200300   -0.0000359800    0.0003195900
