phonopy:
  version: "2.19.1"
  frequency_unit_conversion_factor: 15.633302
  symmetry_tolerance: 1.00000e-05
  configuration:
    create_displacements: ".true."
    dim: "2 2 2"

physical_unit:
  atomic_mass: "AMU"
  length: "angstrom"
  force_constants: "eV/angstrom^2"

space_group:
  type: "Imm2"
  number: 44
  Hall_symbol: "I 2 -2"

supercell_matrix:
- [   2,   0,   0 ]
- [   0,   2,   0 ]
- [   0,   0,   2 ]

primitive_cell:
  lattice:
  - [    -0.000001700000000,     3.242293520000000,     3.242294400000000 ] # a
  - [     3.242297240000000,     0.000002270000000,     3.242296620000000 ] # b
  - [     3.242300790000000,     3.242299280000000,     0.000003170000000 ] # c
  points:
  - symbol: Cd # 1
    coordinates: [  0.000005570000000,  0.000006320000000,  0.999994450000000 ]
    mass: 112.411000
  - symbol: Te # 2
    coordinates: [  0.749994430000000,  0.749993680000000,  0.750005550000000 ]
    mass: 127.600000
  reciprocal_lattice: # without 2pi
  - [    -0.154211842081094,     0.154211763127429,     0.154211763602969 ] # a*
  - [     0.154211585719411,    -0.154211808311771,     0.154211847312951 ] # b*
  - [     0.154211460154441,     0.154211720321193,    -0.154211597610005 ] # c*

unit_cell:
  lattice:
  - [    -0.000001700000000,     3.242293520000000,     3.242294400000000 ] # a
  - [     3.242297240000000,     0.000002270000000,     3.242296620000000 ] # b
  - [     3.242300790000000,     3.242299280000000,     0.000003170000000 ] # c
  points:
  - symbol: Cd # 1
    coordinates: [  0.000005570000000,  0.000006320000000, -0.000005550000000 ]
    mass: 112.411000
    reduced_to: 1
  - symbol: Te # 2
    coordinates: [  0.749994430000000,  0.749993680000000,  0.750005550000000 ]
    mass: 127.600000
    reduced_to: 2

supercell:
  lattice:
  - [    -0.000003400000000,     6.484587040000000,     6.484588800000000 ] # a
  - [     6.484594480000000,     0.000004540000000,     6.484593240000000 ] # b
  - [     6.484601580000000,     6.484598560000000,     0.000006340000000 ] # c
  points:
  - symbol: Cd # 1
    coordinates: [  0.000002785000000,  0.000003160000000,  0.999997225000000 ]
    mass: 112.411000
    reduced_to: 1
  - symbol: Cd # 2
    coordinates: [  0.500002785000000,  0.000003160000000,  0.999997225000000 ]
    mass: 112.411000
    reduced_to: 1
  - symbol: Cd # 3
    coordinates: [  0.000002785000000,  0.500003160000000,  0.999997225000000 ]
    mass: 112.411000
    reduced_to: 1
  - symbol: Cd # 4
    coordinates: [  0.500002785000000,  0.500003160000000,  0.999997225000000 ]
    mass: 112.411000
    reduced_to: 1
  - symbol: Cd # 5
    coordinates: [  0.000002785000000,  0.000003160000000,  0.499997225000000 ]
    mass: 112.411000
    reduced_to: 1
  - symbol: Cd # 6
    coordinates: [  0.500002785000000,  0.000003160000000,  0.499997225000000 ]
    mass: 112.411000
    reduced_to: 1
  - symbol: Cd # 7
    coordinates: [  0.000002785000000,  0.500003160000000,  0.499997225000000 ]
    mass: 112.411000
    reduced_to: 1
  - symbol: Cd # 8
    coordinates: [  0.500002785000000,  0.500003160000000,  0.499997225000000 ]
    mass: 112.411000
    reduced_to: 1
  - symbol: Te # 9
    coordinates: [  0.374997215000000,  0.374996840000000,  0.375002775000000 ]
    mass: 127.600000
    reduced_to: 9
  - symbol: Te # 10
    coordinates: [  0.874997215000000,  0.374996840000000,  0.375002775000000 ]
    mass: 127.600000
    reduced_to: 9
  - symbol: Te # 11
    coordinates: [  0.374997215000000,  0.874996840000000,  0.375002775000000 ]
    mass: 127.600000
    reduced_to: 9
  - symbol: Te # 12
    coordinates: [  0.874997215000000,  0.874996840000000,  0.375002775000000 ]
    mass: 127.600000
    reduced_to: 9
  - symbol: Te # 13
    coordinates: [  0.374997215000000,  0.374996840000000,  0.875002775000000 ]
    mass: 127.600000
    reduced_to: 9
  - symbol: Te # 14
    coordinates: [  0.874997215000000,  0.374996840000000,  0.875002775000000 ]
    mass: 127.600000
    reduced_to: 9
  - symbol: Te # 15
    coordinates: [  0.374997215000000,  0.874996840000000,  0.875002775000000 ]
    mass: 127.600000
    reduced_to: 9
  - symbol: Te # 16
    coordinates: [  0.874997215000000,  0.874996840000000,  0.875002775000000 ]
    mass: 127.600000
    reduced_to: 9

displacements:
- atom:    1
  displacement:
    [  -0.0000000037075032,  0.0070710668522759,  0.0070710687714540 ]
- atom:    1
  displacement:
    [   0.0000000037075032, -0.0070710668522759, -0.0070710687714540 ]
- atom:    9
  displacement:
    [  -0.0000000037075032,  0.0070710668522759,  0.0070710687714540 ]
- atom:    9
  displacement:
    [   0.0000000037075032, -0.0070710668522759, -0.0070710687714540 ]
