------------------------------------------------------------
          Invoking FHI-aims ...

          When using FHI-aims, please cite the following reference:

            Volker Blum, Ralf Gehrke, Felix Hanke, Paula Havu,
            Ville Havu, Xinguo Ren, Karsten Reuter, and Matthias Scheffler,
            'Ab Initio Molecular Simulations with Numeric Atom-Centered Orbitals',
            Computer Physics Communications 180, 2175-2196 (2009)

          In addition, many other developments in FHI-aims are likely important for
          your particular application. A partial list of references is given at the end of
          this file. Thank you for giving credit to the authors of these developments.

          For any questions about FHI-aims, please visit our slack channel at

            https://fhi-aims.slack.com

          and our main development and support site at

            https://aims-git.rz-berlin.mpg.de .

          The latter site, in particular, has a wiki to collect information, as well
          as an issue tracker to log discussions, suggest improvements, and report issues
          or bugs. https://aims-git.rz-berlin.mpg.de is also the main development site
          of the project and all new and updated code versions can be obtained there.
          Please send an email to aims-coordinators@fhi-berlin.mpg.de and we will add
          you to these sites. They are for you and everyone is welcome there.

------------------------------------------------------------



  Date     :  20230816, Time     :  133930.793
  Time zero on CPU 1             :   0.242073000000000E+00  s.
  Internal wall clock time zero  :           461425170.793  s.

  FHI-aims created a unique identifier for this run for later identification
  aims_uuid : FFDBD717-EA9A-416F-ADCD-CEF6606DAF6F

  Build configuration of the current instance of FHI-aims
  -------------------------------------------------------
  FHI-aims version      : 220619
  Commit number         : ad4f367e7
  CMake host system     : Linux-5.4.0-122-generic
  CMake version         : 3.16.3
  Fortran compiler      : /opt/intel/oneapi/mpi/2021.5.1/bin/mpiifort (Intel) version 20.2.5.20211109
  Fortran compiler flags: -O3 -ip -fp-model precise
  C compiler            : /opt/intel/oneapi/compiler/2022.0.2/linux/bin/intel64/icc (Intel) version 20.2.5.20211109
  C compiler flags      : -O3 -ip -fp-model precise -std=gnu99
  ELPA2 kernel          : AVX2
  Using MPI
  Using ScaLAPACK
  Using LibXC
  Using i-PI
  Using RLSY
  Linking against: /opt/intel/oneapi/mkl/2022.1.0/lib/intel64/libmkl_intel_lp64.so
                   /opt/intel/oneapi/mkl/2022.1.0/lib/intel64/libmkl_sequential.so
                   /opt/intel/oneapi/mkl/2022.1.0/lib/intel64/libmkl_core.so
                   /opt/intel/oneapi/mkl/2022.1.0/lib/intel64/libmkl_blacs_intelmpi_lp64.so
                   /opt/intel/oneapi/mkl/2022.1.0/lib/intel64/libmkl_scalapack_lp64.so

  Using        6 parallel tasks.
  Task        0 on host c21000127-lnx reporting.
  Task        1 on host c21000127-lnx reporting.
  Task        2 on host c21000127-lnx reporting.
  Task        3 on host c21000127-lnx reporting.
  Task        4 on host c21000127-lnx reporting.
  Task        5 on host c21000127-lnx reporting.

  Performing system and environment tests:
  *** Environment variable OMP_NUM_THREADS is not set
  *** For performance reasons you might want to set it to 1
  | Checking for ScaLAPACK...
  | Testing pdtran()...
  | All pdtran() tests passed.

  Obtaining array dimensions for all initial allocations:
  
  -----------------------------------------------------------------------
  Parsing control.in (first pass over file, find array dimensions only).
  The contents of control.in will be repeated verbatim below
  unless switched off by setting 'verbatim_writeout .false.' .
  in the first line of control.in .
  -----------------------------------------------------------------------
  
  #  for production level calculation use tight basis set
  xc                                 pbe
  spin                               none
  k_grid                             8 8 8
  sc_accuracy_rho                    1e-07
  relativistic                       atomic_zora scalar
  output_level                       MD_light
  sc_accuracy_forces                 1E-6
  sc_iter_limit                      100
  KS_method serial
  output polarization                1 20 20 20
  ################################################################################
  #
  #  FHI-aims code project
  #  VB, Fritz-Haber Institut, 2009
  #
  #  Suggested "light" defaults for Cd atom (to be pasted into control.in file)
  #  Be sure to double-check any results obtained with these settings for post-processing,
  #  e.g., with the "tight" defaults and larger basis sets.
  #
  ################################################################################
    species        Cd
  #     global species definitions
      nucleus             48
      mass                112.411
  #
      l_hartree           4
  #
      cut_pot             3.5  1.5  1.0
      basis_dep_cutoff    1e-4
  #
      radial_base         62 5.0
      radial_multiplier   1
      angular_grids specified
        division   0.5937   50
        division   1.0282  110
        division   1.3769  194
        division   1.7301  302
  #      division   2.2341  434
  #      division   2.2741  590
  #      division   2.3152  770
  #      division   2.3574  974
  #      division   2.9077 1202
  #      outer_grid  974
        outer_grid  302
  ################################################################################
  #
  #  Definition of "minimal" basis
  #
  ################################################################################
  #     valence basis states
      valence      5  s   2.
      valence      4  p   6.
      valence      4  d  10.
  #     ion occupancy
      ion_occ     5  s   1.
      ion_occ     4  p   6.
      ion_occ     4  d   9.
  ################################################################################
  #
  #  Suggested additional basis functions. For production calculations,
  #  uncomment them one after another (the most important basis functions are
  #  listed first).
  #
  #  Constructed for dimers: 2.15 A, 2.50 A, 3.10 A, 4.00 A, 5.00 A
  #
  ################################################################################
  #  "First tier" - max. impr. -224.92  meV, min. impr. -5.81 meV
       hydro 2 p 1.6
       hydro 4 f 7
       hydro 3 s 2.8
       hydro 3 p 5.2
  #     hydro 5 g 10.0
       hydro 3 d 3.8
  #  "Second tier" - max. impr. -2.57  meV, min. impr. -0.38 meV
  #     hydro 4 f 17.6
  #     hydro 6 h 13.6
  #     hydro 3 p 7
  #     hydro 5 s 17.6
  #     hydro 3 d 3.4
  #  "Third tier" - max. impr. -0.37 meV, min. impr. -0.09 meV
  #     hydro 3 p 2.4
  #     hydro 4 f 6.4
  #     hydro 4 s 4
  #     hydro 5 f 15.6
  #     hydro 5 g 10.8
  #     hydro 2 p 6.4
  #     hydro 6 h 12.8
  #     hydro 5 d 9.0
  #  Further functions: -0.05 meV and below
  #     hydro 5 d 5.8
  ################################################################################
  #
  #  FHI-aims code project
  #  VB, Fritz-Haber Institut, 2009
  #
  #  Suggested "light" defaults for Te atom (to be pasted into control.in file)
  #  Be sure to double-check any results obtained with these settings for post-processing,
  #  e.g., with the "tight" defaults and larger basis sets.
  #
  #  2020/09/22 Added f function to light settings to improve bulk properties of In-I.
  #
  ################################################################################
    species        Te
  #     global species definitions
      nucleus             52
      mass                127.60
  #
      l_hartree           4
  #
      cut_pot             3.5  1.5  1.0
      basis_dep_cutoff    1e-4
  #
      radial_base         64 5.0
      radial_multiplier   1
      angular_grids specified
        division   0.1259  110
        division   0.8959  194
        division   0.9864  302
  #      division   1.1196  434
  #      division   1.1922  590
  #      division   1.3098  770
  #      division   2.9404  974
  #      outer_grid  974
        outer_grid  302
  ################################################################################
  #
  #  Definition of "minimal" basis
  #
  ################################################################################
  #     valence basis states
      valence      5  s   2.
      valence      5  p   4.
      valence      4  d  10.
  #     ion occupancy
      ion_occ     5  s   1.
      ion_occ     5  p   3.
      ion_occ     4  d  10.
  ################################################################################
  #
  #  Suggested additional basis functions. For production calculations,
  #  uncomment them one after another (the most important basis functions are
  #  listed first).
  #
  #  Constructed for dimers: 2.15 A, 2.55 A, 3.10 A, 3.60 A, 4.50 A
  #
  ################################################################################
  #  "First tier" - max. impr. -217.34  meV, min. impr. -22.97 meV
       hydro 3 d 3.7
       hydro 4 f 6
       hydro 3 p 2.7
       ionic 5 s auto
  #  "Second tier" - max. impr. -17.80 meV, min. impr. -0.57 meV
  #     hydro 5 g 9
  #     hydro 4 f 16.4
  #     hydro 6 h 12
  #     hydro 4 p 6.4
  #     hydro 5 f 32.4
  #     hydro 4 d 5
  #     hydro 3 s 2.8
  #  "Third tier" - max. impr. -0.51 meV, min. impr. -0.06 meV
  #     hydro 5 f 8.4
  #     hydro 5 g 11.6
  #     hydro 6 h 15.6
  #     hydro 2 p 1.7
  #     hydro 4 d 9.6
  #     hydro 1 s 6.4
  #  Further functions that fell out of the optimization: -0.17 meV and below
  #     hydro 4 f 33.6
  #     hydro 5 d 6.8
  #     hydro 5 f 16
  
  -----------------------------------------------------------------------
  Completed first pass over input file control.in .
  -----------------------------------------------------------------------
  
  
  -----------------------------------------------------------------------
  Parsing geometry.in (first pass over file, find array dimensions only).
  The contents of geometry.in will be repeated verbatim below
  unless switched off by setting 'verbatim_writeout .false.' .
  in the first line of geometry.in .
  -----------------------------------------------------------------------
  
  #=======================================================
  # FHI-aims file: geometry.in
  # Created using the Atomic Simulation Environment (ASE)
  # Wed Aug 16 12:47:57 2023
  #=======================================================
  lattice_vector -0.0000034000000000 6.4845870400000001 6.4845888000000000
  lattice_vector 6.4845944800000002 0.0000045400000000 6.4845932399999997
  lattice_vector 6.4846015799999996 6.4845985600000002 0.0000063400000000
  atom 6.5763099983683571 6.4845986248282488 0.0000448908768529 Cd
  atom 6.4846023765397032 9.7268921448282484 3.2423392908768527 Cd
  atom 9.7269013165397027 6.4846008948282492 3.2423415108768530 Cd
  atom 9.7268996165397024 9.7268944148282479 6.4846359108768521 Cd
  atom 3.2423032865397032 3.2422993448282487 0.0000417208768529 Cd
  atom 3.2423015865397029 6.4845928648282483 3.2423361208768524 Cd
  atom 6.4846005265397029 3.2423016148282486 3.2423383408768527 Cd
  atom 6.4845988265397034 6.4845951348282487 6.4846327408768518 Cd
  atom 4.8634447509602952 4.8634462376717513 4.8634070916231469 Te
  atom 4.8634430509602957 8.1057397576717509 8.1057014916231473 Te
  atom 8.1057419909602952 4.8634485076717517 8.1057037116231481 Te
  atom 8.1057402909602949 8.1057420276717504 11.3479981116231485 Te
  atom 8.1057455409602959 8.1057455176717514 4.8634102616231472 Te
  atom 8.1057438409602955 11.3480390376717519 8.1057046616231467 Te
  atom 11.3480427809602951 8.1057477876717510 8.1057068816231475 Te
  atom 11.3480410809602947 11.3480413076717515 11.3480012816231479 Te
  
  -----------------------------------------------------------------------
  Completed first pass over input file geometry.in .
  -----------------------------------------------------------------------
  

  Basic array size parameters:
  | Number of species                 :        2
  | Number of atoms                   :       16
  | Number of lattice vectors         :        3
  | Max. basis fn. angular momentum   :        3
  | Max. atomic/ionic basis occupied n:        5
  | Max. number of basis fn. types    :        3
  | Max. radial fns per species/type  :       11
  | Max. logarithmic grid size        :     1454
  | Max. radial integration grid size :       64
  | Max. angular integration grid size:      302
  | Max. angular grid division number :        8
  | Radial grid for Hartree potential :     1454
  | Number of spin channels           :        1

------------------------------------------------------------
          Reading file control.in.
------------------------------------------------------------
  XC: Using PBE gradient-corrected functionals.
  Spin treatment: No spin polarisation.
  Found k-point grid:         8         8         8
  Convergence accuracy of self-consistent charge density:  0.1000E-06
  Scalar relativistic treatment of kinetic energy: on-site free-atom approximation to ZORA.
  Requested output level: MD_light
  Convergence accuracy of forces:  0.1000E-05
  Maximum number of s.-c. iterations  :   100
  Kohn-Sham eigenvalues and eigenfunctions calculated by LAPACK via ELSI.

  Polarization directive number:    1
  | Calculating polarization along reciprocal lattice vector 1 using   20 k-points parallel to this direction.
  | Full Brillouin zone sampling is thus performed on a    20 x    20 x    20 grid
 
  Reading configuration options for species Cd                  .
  | Found nuclear charge :  48.0000
  | Found atomic mass :    112.411000000000      amu
  | Found l_max for Hartree potential  :   4
  | Found cutoff potl. onset [A], width [A], scale factor :    3.50000    1.50000    1.00000
  | Threshold for basis-dependent cutoff potential is   0.100000E-03
  | Found data for basic radial integration grid :    62 points, outermost radius =    5.000 A
  | Found multiplier for basic radial grid :   1
  | Found angular grid specification: user-specified.
  | Specified grid contains     5 separate shells.
  | Check grid settings after all constraints further below.
  | Found free-atom valence shell :  5 s   2.000
  | Found free-atom valence shell :  4 p   6.000
  | Found free-atom valence shell :  4 d  10.000
  | Found free-ion valence shell :  5 s   1.000
  | Found free-ion valence shell :  4 p   6.000
  | Found free-ion valence shell :  4 d   9.000
  | Found hydrogenic basis function :  2 p   1.600
  | Found hydrogenic basis function :  4 f   7.000
  | Found hydrogenic basis function :  3 s   2.800
  | Found hydrogenic basis function :  3 p   5.200
  | Found hydrogenic basis function :  3 d   3.800
  Species Cd                  : Missing cutoff potential type.
  Defaulting to exp(1/x)/(1-x)^2 type cutoff potential.
  Species Cd: No 'logarithmic' tag. Using default grid for free atom:
  | Default logarithmic grid data [bohr] : 0.1000E-03 0.1000E+03 0.1012E+01
  Species Cd: On-site basis accuracy parameter (for Gram-Schmidt orthonormalisation) not specified.
  Using default value basis_acc =  0.1000000E-03.
  Species Cd                  : Using default innermost maximum threshold i_radial=  2 for radial functions.
  Species Cd                  : Default cutoff onset for free atom density etc. : 0.35000000E+01 AA.
  Species Cd                  : Basic radial grid will be enhanced according to radial_multiplier =   1, to contain    62 grid points.
 
  Reading configuration options for species Te                  .
  | Found nuclear charge :  52.0000
  | Found atomic mass :    127.600000000000      amu
  | Found l_max for Hartree potential  :   4
  | Found cutoff potl. onset [A], width [A], scale factor :    3.50000    1.50000    1.00000
  | Threshold for basis-dependent cutoff potential is   0.100000E-03
  | Found data for basic radial integration grid :    64 points, outermost radius =    5.000 A
  | Found multiplier for basic radial grid :   1
  | Found angular grid specification: user-specified.
  | Specified grid contains     4 separate shells.
  | Check grid settings after all constraints further below.
  | Found free-atom valence shell :  5 s   2.000
  | Found free-atom valence shell :  5 p   4.000
  | Found free-atom valence shell :  4 d  10.000
  | Found free-ion valence shell :  5 s   1.000
  | Found free-ion valence shell :  5 p   3.000
  | Found free-ion valence shell :  4 d  10.000
  | Found hydrogenic basis function :  3 d   3.700
  | Found hydrogenic basis function :  4 f   6.000
  | Found hydrogenic basis function :  3 p   2.700
  | Found ionic basis function :  5 s , default cutoff radius.
  Species Te                  : Missing cutoff potential type.
  Defaulting to exp(1/x)/(1-x)^2 type cutoff potential.
  Species Te: No 'logarithmic' tag. Using default grid for free atom:
  | Default logarithmic grid data [bohr] : 0.1000E-03 0.1000E+03 0.1012E+01
  | Will include ionic basis functions of  2.0-fold positive Te                   ion.
  Species Te: On-site basis accuracy parameter (for Gram-Schmidt orthonormalisation) not specified.
  Using default value basis_acc =  0.1000000E-03.
  Species Te                  : Using default innermost maximum threshold i_radial=  2 for radial functions.
  Species Te                  : Default cutoff onset for free atom density etc. : 0.35000000E+01 AA.
  Species Te                  : Basic radial grid will be enhanced according to radial_multiplier =   1, to contain    64 grid points.
 
  Finished reading input file 'control.in'.
 
------------------------------------------------------------


------------------------------------------------------------
          Reading geometry description geometry.in.
------------------------------------------------------------
  | The smallest distance between any two atoms is         2.75593283 AA.
  | The first atom of this pair is atom number                      1 .
  | The second atom of this pair is atom number                    14 .
  | Wigner-Seitz cell of the first atom image           0     0     0 .
  | (The Wigner-Seitz cell of the second atom is 0 0 0  by definition.)

  Symmetry information by spglib:
  | Precision set to  0.1E-04
  | Number of Operations  : 1
  | Space group           : 1
  | International         : P1
  | Schoenflies           : C1^1
  Input structure read successfully.
  The structure contains       16 atoms,  and a total of        800.000 electrons.

  Input geometry:
  | Unit cell:
  |       -0.00000340        6.48458704        6.48458880
  |        6.48459448        0.00000454        6.48459324
  |        6.48460158        6.48459856        0.00000634
  | Atomic structure:
  |       Atom                x [A]            y [A]            z [A]
  |    1: Species Cd            6.57631000        6.48459862        0.00004489
  |    2: Species Cd            6.48460238        9.72689214        3.24233929
  |    3: Species Cd            9.72690132        6.48460089        3.24234151
  |    4: Species Cd            9.72689962        9.72689441        6.48463591
  |    5: Species Cd            3.24230329        3.24229934        0.00004172
  |    6: Species Cd            3.24230159        6.48459286        3.24233612
  |    7: Species Cd            6.48460053        3.24230161        3.24233834
  |    8: Species Cd            6.48459883        6.48459513        6.48463274
  |    9: Species Te            4.86344475        4.86344624        4.86340709
  |   10: Species Te            4.86344305        8.10573976        8.10570149
  |   11: Species Te            8.10574199        4.86344851        8.10570371
  |   12: Species Te            8.10574029        8.10574203       11.34799811
  |   13: Species Te            8.10574554        8.10574552        4.86341026
  |   14: Species Te            8.10574384       11.34803904        8.10570466
  |   15: Species Te           11.34804278        8.10574779        8.10570688
  |   16: Species Te           11.34804108       11.34804131       11.34800128

  Lattice parameters for 3D lattice (in Angstroms) :     9.170592    9.170601    9.170609
  Angle(s) between unit vectors (in degrees)       :    59.999934   59.999997   59.999993


  Quantities derived from the lattice vectors (in Angstrom^-1):
  | Reciprocal lattice vector 1: -0.484471  0.484471  0.484471
  | Reciprocal lattice vector 2:  0.484470 -0.484471  0.484471
  | Reciprocal lattice vector 3:  0.484470  0.484470 -0.484470
  | Unit cell volume                               :   0.545354E+03  Angstrom^3

 
  Finished reading input file 'geometry.in'.
 

 
  Consistency checks for stacksize environment parameter are next.
 
  | Maximum stacksize for task 0: unlimited
  | Maximum stacksize for task 1: unlimited
  | Maximum stacksize for task 2: unlimited
  | Maximum stacksize for task 3: unlimited
  | Maximum stacksize for task 4: unlimited
  | Maximum stacksize for task 5: unlimited
  | Current stacksize for task 0: unlimited
  | Current stacksize for task 1: unlimited
  | Current stacksize for task 2: unlimited
  | Current stacksize for task 3: unlimited
  | Current stacksize for task 4: unlimited
  | Current stacksize for task 5: unlimited
 
  Consistency checks for the contents of control.in are next.
 
  MPI_IN_PLACE appears to work with this MPI implementation.
  | Keeping use_mpi_in_place .true. (see manual).
  Target number of points in a grid batch is not set. Defaulting to  100
  Method for grid partitioning is not set. Defaulting to parallel hash+maxmin partitioning.
  Batch size limit is not set. Defaulting to    200
  By default, will store active basis functions for each batch.
  If in need of memory, prune_basis_once .false. can be used to disable this option.
  communication_type for Hartree potential was not specified.
  Defaulting to calc_hartree .
  Defaulting to Pulay charge density mixer.
  Pulay mixer: Number of relevant iterations not set.
  Defaulting to    8 iterations.
  Pulay mixer: Number of initial linear mixing iterations not set.
  Defaulting to    0 iterations.
  Work space size for distributed Hartree potential not set.
  Defaulting to   0.200000E+03 MB.
  Mixing parameter for charge density mixing has not been set.
  Using default: charge_mix_param =     0.0500.
  The mixing parameter will be adjusted in iteration number     2 of the first full s.c.f. cycle only.
  Algorithm-dependent basis array size parameters:
  | n_max_pulay                         :        8
  Presetting      1001 iterations before the initial mixing cycle
  is restarted anyway using the sc_init_iter criterion / keyword.
  Presetting a factor      1.000 between actual scf density residual
  and density convergence criterion sc_accuracy_rho below which sc_init_iter
  takes no effect.
  Geometry relaxation not requested: no relaxation will be performed.
  Forces evaluation will include force correction term due to incomplete self-consistency (default).
  Handling of forces: Unphysical translation and rotation will be removed from forces.
  No accuracy limit for integral partition fn. given. Defaulting to  0.1000E-14.
  No threshold value for u(r) in integrations given. Defaulting to  0.1000E-05.
  No occupation type (smearing scheme) given. Defaulting to Gaussian broadening, width =  0.1000E-01 eV.
  The width will be adjusted in iteration number     2 of the first full s.c.f. cycle only.
  S.C.F. convergence parameters will be adjusted in iteration number     2 of the first full s.c.f. cycle only.
  No accuracy for occupation numbers given. Defaulting to  0.1000E-12.
  No threshold value for occupation numbers given. Defaulting to  0.0000E+00.
  No accuracy for fermi level given. Defaulting to  0.1000E-19.
  Maximum # of iterations to find E_F not set. Defaulting to  200.
  Will not use alltoall communication since running on < 1024 CPUs.
  Threshold for basis singularities not set.
  Default threshold for basis singularities:  0.1000E-04
  partition_type (choice of integration weights) for integrals was not specified.
  | Using a version of the partition function of Stratmann and coworkers ('stratmann_sparse').
  | At each grid point, the set of atoms used to build the partition table is smoothly restricted to
  | only those atoms whose free-atom density would be non-zero at that grid point.
  Partitioning for Hartree potential was not defined. Using partition_type for integrals.
  | Adjusted default value of keyword multip_moments_threshold to:       0.10000000E-11
  | This value may affect high angular momentum components of the Hartree potential in periodic systems.
  Angular momentum expansion for Kerker preconditioner not set explicitly.
  | Using default value of   0
  No explicit requirement for turning off preconditioner.
  | By default, it will be turned off when the charge convergence reaches
  | sc_accuracy_rho  =   0.100000E-06
  No special mixing parameter while Kerker preconditioner is on.
  Using default: charge_mix_param =     0.0500.
  No q(lm)/r^(l+1) cutoff set for long-range Hartree potential.
  | Using default value of  0.100000E-09 .
  | Verify using the multipole_threshold keyword.
  Defaulting to new monopole extrapolation.
  Density update method: automatic selection selected.
  Using density matrix based charge density update.
  Using density matrix based charge density update.
  Using packed matrix style: index .
  Defaulting to use time-reversal symmetry for k-point grid.
  Charge integration errors on the 3D integration grid will be compensated
  by explicit normalization and distribution of residual charges.
  Use the "compensate_multipole_errors" flag to change this behaviour.
  Set 'collect_eigenvectors' to be '.true.' for all serial calculations. This is mandatory.
  Set 'collect_eigenvectors' to be '.true.' for KS_method lapack_fast and serial.
 
  Consistency checks for the contents of geometry.in are next.
 

  Range separation radius for Ewald summation (hartree_convergence_parameter):      4.70785872 bohr.
  Number of empty states per atom not set in control.in - providing a guess from actual geometry.
  | Total number of empty states used during s.c.f. cycle:       88
  If you use a very high smearing, use empty_states (per atom!) in control.in to increase this value.

  Structure-dependent array size parameters: 
  | Maximum number of distinct radial functions  :       30
  | Maximum number of basis functions            :      688
  | Number of Kohn-Sham states (occupied + empty):      488
------------------------------------------------------------

------------------------------------------------------------
          Preparing all fixed parts of the calculation.
------------------------------------------------------------
  Determining machine precision:
    2.225073858507201E-308
  Setting up grids for atomic and cluster calculations.

  Creating wave function, potential, and density for free atoms.
  Runtime choices for atomic solver:
  | atomic solver xc        : PBE
  | compute density gradient: 1
  | compute kinetic density : F

  Species: Cd

  List of occupied orbitals and eigenvalues:
    n    l              occ      energy [Ha]    energy [eV]
    1    0           2.0000     -1004.952228    -27346.1415
    2    0           2.0000      -145.510972     -3959.5550
    3    0           2.0000       -26.992512      -734.5036
    4    0           2.0000        -3.884870      -105.7127
    5    0           2.0000        -0.201683        -5.4881
    2    1           6.0000      -130.512119     -3551.4155
    3    1           6.0000       -22.104944      -601.5061
    4    1           6.0000        -2.453065       -66.7513
    3    2          10.0000       -14.470763      -393.7695
    4    2          10.0000        -0.424797       -11.5593


  Species: Te

  List of occupied orbitals and eigenvalues:
    n    l              occ      energy [Ha]    energy [eV]
    1    0           2.0000     -1205.190120    -32794.8918
    2    0           2.0000      -179.429385     -4882.5220
    3    0           2.0000       -35.510100      -966.2790
    4    0           2.0000        -6.032854      -164.1623
    5    0           2.0000        -0.548847       -14.9349
    2    1           6.0000      -160.991388     -4380.7986
    3    1           6.0000       -29.564605      -804.4938
    4    1           6.0000        -4.195319      -114.1604
    5    1           4.0000        -0.212579        -5.7846
    3    2          10.0000       -20.595582      -560.4343
    4    2          10.0000        -1.523481       -41.4560


  Adding cutoff potential to free-atom effective potential.
  Creating fixed part of basis set: Ionic, confined, hydrogenic.
 
  Cd                   hydrogenic:
 
  List of hydrogenic basis orbitals: 
    n    l      effective z      eigenvalue [eV]  inner max. [A]     outer max. [A]     outer radius [A]   
    2    1         1.600000        -8.6069           1.306574           1.306574           4.602417
    4    3         7.000000       -41.6658           1.214167           1.214167           4.546495
    3    0         2.800000       -11.1322           0.139490           2.349512           4.602417
    3    1         5.200000       -40.8769           0.305024           1.214167           4.491253
    3    2         3.800000       -21.8139           1.259523           1.259523           4.546495
 
 
  Te                   ion:

  List of free ionic orbitals and eigenvalues:
    n    l      energy [Ha]    energy [eV]
    1    0     -1206.001395    -32816.9677
    2    0      -180.213456     -4903.8576
    3    0       -36.289734      -987.4939
    4    0        -6.806662      -185.2187
    5    0        -1.230780       -33.4912
    2    1      -161.775412     -4402.1329
    3    1       -30.344117      -825.7054
    4    1        -4.968097      -135.1888
    5    1        -0.843350       -22.9487
    3    2       -21.374869      -581.6398
    4    2        -2.290936       -62.3395


  List of ionic basis orbitals and eigenvalues:
    n    l      energy [Ha]    energy [eV]    outer radius [A]
    5    0        -1.230763       -33.4908       4.045637

 
  Te                   hydrogenic:
 
  List of hydrogenic basis orbitals: 
    n    l      effective z      eigenvalue [eV]  inner max. [A]     outer max. [A]     outer radius [A]   
    3    2         3.700000       -20.6750           1.282089           1.282089           4.571717
    4    3         6.000000       -30.5978           1.413813           1.413813           4.571717
    3    1         2.700000       -10.4143           0.586309           2.249797           4.627949
 
  Creating atomic-like basis functions for current effective potential.

  Species Cd                  :

  List of atomic basis orbitals and eigenvalues:
    n    l      energy [Ha]    energy [eV]    outer radius [A]
    1    0     -1004.952228    -27346.1415       0.213976
    2    0      -145.510972     -3959.5550       0.583074
    3    0       -26.992512      -734.5036       1.338913
    4    0        -3.884870      -105.7127       3.308540
    5    0        -0.201683        -5.4881       4.602417
    2    1      -130.512119     -3551.4155       0.597506
    3    1       -22.104944      -601.5061       1.440814
    4    1        -2.453065       -66.7513       3.926140
    3    2       -14.470763      -393.7695       1.668472
    4    2        -0.424797       -11.5593       4.491253


  Species Te                  :

  List of atomic basis orbitals and eigenvalues:
    n    l      energy [Ha]    energy [eV]    outer radius [A]
    1    0     -1205.190120    -32794.8918       0.195117
    2    0      -179.429385     -4882.5220       0.531683
    3    0       -35.510100      -966.2790       1.176937
    4    0        -6.032854      -164.1623       2.735843
    5    0        -0.548847       -14.9349       4.516168
    2    1      -160.991388     -4380.7986       0.544843
    3    1       -29.564605      -804.4938       1.266511
    4    1        -4.195319      -114.1604       3.168123
    5    1        -0.212579        -5.7846       4.571717
    3    2       -20.595582      -560.4343       1.431203
    4    2        -1.523481       -41.4560       4.196765

  Assembling full basis from fixed parts.
  | Species Cd :   atomic orbital   1 s accepted.
  | Species Cd :   atomic orbital   2 s accepted.
  | Species Cd :   atomic orbital   3 s accepted.
  | Species Cd :   atomic orbital   4 s accepted.
  | Species Cd :   atomic orbital   5 s accepted.
  | Species Cd :    hydro orbital   3 s accepted.
  | Species Cd :   atomic orbital   2 p accepted.
  | Species Cd :   atomic orbital   3 p accepted.
  | Species Cd :   atomic orbital   4 p accepted.
  | Species Cd :    hydro orbital   3 p accepted.
  | Species Cd :    hydro orbital   2 p accepted.
  | Species Cd :   atomic orbital   3 d accepted.
  | Species Cd :   atomic orbital   4 d accepted.
  | Species Cd :    hydro orbital   3 d accepted.
  | Species Cd :    hydro orbital   4 f accepted.
  | Species Te :   atomic orbital   1 s accepted.
  | Species Te :   atomic orbital   2 s accepted.
  | Species Te :   atomic orbital   3 s accepted.
  | Species Te :   atomic orbital   4 s accepted.
  | Species Te :    ionic orbital   5 s accepted.
  | Species Te :   atomic orbital   5 s accepted.
  | Species Te :   atomic orbital   2 p accepted.
  | Species Te :   atomic orbital   3 p accepted.
  | Species Te :   atomic orbital   4 p accepted.
  | Species Te :   atomic orbital   5 p accepted.
  | Species Te :    hydro orbital   3 p accepted.
  | Species Te :   atomic orbital   3 d accepted.
  | Species Te :   atomic orbital   4 d accepted.
  | Species Te :    hydro orbital   3 d accepted.
  | Species Te :    hydro orbital   4 f accepted.
 
  Basis size parameters after reduction:
  | Total number of radial functions:       30
  | Total number of basis functions :      688
 
  Per-task memory consumption for arrays in subroutine allocate_ext:
  |          11.184208MB.
  Testing on-site integration grid accuracy.
  |  Species  Function  <phi|h_atom|phi> (log., in eV)  <phi|h_atom|phi> (rad., in eV)
           1        1             -27346.1414740300             -27346.0877548099 ***
           1        2              -3959.5550189636              -3959.5541934178
           1        3               -734.5036354788               -734.5036031563
           1        4               -105.7126932808               -105.7126908100
           1        5                 -5.4968462690                 -5.5039174565
           1        6                  6.2278835096                  6.1287984038 ***
           1        7              -3551.4154558044              -3551.4154537844
           1        8               -601.5061279336               -601.5061256530
           1        9                -66.7512841207                -66.7512830248
           1       10                  2.4482690991                  2.4481544936
           1       11                  8.5190814064                  8.4038211019 ***
           1       12               -393.7694963194               -393.7694957690
           1       13                -11.5593422264                -11.5593671337
           1       14                 11.6269145692                 11.6219408288
           1       15                 20.8349845303                 20.8345732567
           2       16             -32794.8917554015             -32794.8207624302 ***
           2       17              -4882.5219893742              -4882.5208489942
           2       18               -966.2789830371               -966.2789340972
           2       19               -164.1623014115               -164.1622982691
           2       20                -14.7555985338                -14.7557021640
           2       21                  5.4227913449                  5.4196149694
           2       22              -4380.7985727381              -4380.7985681865
           2       23               -804.4938282293               -804.4938244933
           2       24               -114.1604295167               -114.1604283512
           2       25                 -5.7898299384                 -5.7935051375
           2       26                  6.3964828067                  6.3136140479 ***
           2       27               -560.4343039286               -560.4343025566
           2       28                -41.4560249156                -41.4560244044
           2       29                  5.4171856940                  5.4128506235
           2       30                 13.3071223267                 13.3042615902
 * Note: Onsite integrals marked "***" above are less accurate than
 * onsite_accuracy_threshold =    0.03000 eV. Usually, this is harmless.
 * However, one integral did have a negative value. This integral could be important.
 * When in doubt, tighten the "radial" and/or "radial_multiplier" flags to check.

  Preparing densities etc. for the partition functions (integrals / Hartree potential).

  Preparations completed.
  max(cpu_time)          :      0.300 s.
  Wall clock time (cpu1) :      0.300 s.
------------------------------------------------------------

  Initializing index lists of integration centers etc. from given atomic structure:
  Mapping all atomic coordinates to central unit cell.

  Initializing the k-points
  Using symmetry for reducing the k-points
  | k-points reduced from:      512 to      260
  | Number of k-points                             :       260
  The eigenvectors in the calculations are COMPLEX.
  | K-points in task   0:        43
  | K-points in task   1:        44
  | K-points in task   2:        44
  | K-points in task   3:        43
  | K-points in task   4:        43
  | K-points in task   5:        43
  | Number of basis functions in the Hamiltonian integrals :      5380
  | Number of basis functions in a single unit cell        :       688
  | Number of centers in hartree potential         :      1106
  | Number of centers in hartree multipole         :       426
  | Number of centers in electron density summation:       308
  | Number of centers in basis integrals           :       360
  | Number of centers in integrals                 :       183
  | Number of centers in hamiltonian               :       308
  | Consuming        146 KiB for k_phase.
  | Number of super-cells (origin) [n_cells]                     :         343
  | Number of super-cells (after PM_index) [n_cells]             :          36
  | Number of super-cells in hamiltonian [n_cells_in_hamiltonian]:          36
  | Size of matrix packed + index [n_hamiltonian_matrix_size] :      793993

------------------------------------------------------------
          Begin self-consistency loop: Initialization.

          Date     :  20230816, Time     :  133931.319
------------------------------------------------------------
  | Estimated reciprocal-space cutoff momentum G_max:         1.96458638 bohr^-1 .
  | Reciprocal lattice points for long-range Hartree potential:     458
  Partitioning the integration grid into batches with parallel hashing+maxmin method.
  | Number of batches:     2050
  | Maximal batch size:     116
  | Minimal batch size:      49
  | Average batch size:      80.546
  | Standard deviation of batch sizes:      18.928

  Integration load balanced across     6 MPI tasks.
  Work distribution over tasks is as follows:
  Task     0 has      27513 integration points.
  Task     1 has      27523 integration points.
  Task     2 has      27513 integration points.
  Task     3 has      27524 integration points.
  Task     4 has      27559 integration points.
  Task     5 has      27488 integration points.
  Initializing partition tables, free-atom densities, potentials, etc. across the integration grid (initialize_grid_storage).
  | initialize_grid_storage: Actual outermost partition radius vs. multipole_radius_free
  | (-- VB: in principle, multipole_radius_free should be larger, hence this output)
  | Species        1: Confinement radius =              4.999999999999999 AA, multipole_radius_free =              5.013611646002804 AA.
  | Species        1: outer_partition_radius set to              5.013611646002804 AA .
  | Species        2: Confinement radius =              4.999999999999999 AA, multipole_radius_free =              5.041424710192624 AA.
  | Species        2: outer_partition_radius set to              5.041424710192624 AA .
  | The sparse table of interatomic distances needs        321.94 kbyte instead of      1036.80 kbyte of memory.
  | Net number of integration points:   165120
  | of which are non-zero points    :   156944
  | Numerical average free-atom electrostatic potential    :    -13.70679571 eV
  Renormalizing the initial density to the exact electron count on the 3D integration grid.
  | Initial density: Formal number of electrons (from input files) :     800.0000000000
  | Integrated number of electrons on 3D grid     :     800.0114865394
  | Charge integration error                      :       0.0114865394
  | Normalization factor for density and gradient :       0.9999856420
  Renormalizing the free-atom superposition density to the exact electron count on the 3D integration grid.
  | Formal number of electrons (from input files) :     800.0000000000
  | Integrated number of electrons on 3D grid     :     800.0114865394
  | Charge integration error                      :       0.0114865394
  | Normalization factor for density and gradient :       0.9999856420
  Obtaining max. number of non-zero basis functions in each batch (get_n_compute_maxes).
  | Maximal number of non-zero basis functions:      553 in task     0
  | Maximal number of non-zero basis functions:      555 in task     1
  | Maximal number of non-zero basis functions:      563 in task     2
  | Maximal number of non-zero basis functions:      543 in task     3
  | Maximal number of non-zero basis functions:      562 in task     4
  | Maximal number of non-zero basis functions:      554 in task     5
  Allocating      220.291 MB for KS_eigenvector_complex
  Integrating Hamiltonian matrix: batch-based integration.
  Time summed over all CPUs for integration: real work        4.629 s, elapsed        4.724 s
  Integrating overlap matrix.
  Time summed over all CPUs for integration: real work        3.059 s, elapsed        3.110 s
  Decreasing sparse matrix size:
  | Tolerance:  0.1000E-12
  Hamiltonian matrix
  | Array has   694420 nonzero elements out of   793993 elements
  | Sparsity factor is 0.125
  Overlap matrix
  | Array has   650633 nonzero elements out of   793993 elements
  | Sparsity factor is 0.181
  New size of hamiltonian matrix:      694750

  Updating Kohn-Sham eigenvalues and eigenvectors using ELSI and the (modified) LAPACK eigensolver.

  Obtaining occupation numbers and electronic chemical potential using ELSI.
  | Note that, for insulating systems, the printed 'chemical potential' value is not uniquely defined.
  | It can be anywhere in the energy gap, as long as it correctly separates occupied and unoccupied states.
  | In systems with a gap, the physically relevant chemical potential is the VBM or HOMO.

  | Chemical potential (Fermi level):    -4.69052092 eV
  Writing Kohn-Sham eigenvalues.
  K-point:       1 at    0.000000    0.000000    0.000000 (in units of recip. lattice)

  State    Occupation    Eigenvalue [Ha]    Eigenvalue [eV]
      1       2.00000       -1205.190982       -32794.91522
      2       2.00000       -1205.190982       -32794.91521
      3       2.00000       -1205.190781       -32794.90973
      4       2.00000       -1205.190781       -32794.90973
      5       2.00000       -1205.190781       -32794.90973
      6       2.00000       -1205.190781       -32794.90973
      7       2.00000       -1205.190608       -32794.90504
      8       2.00000       -1205.190608       -32794.90504
      9       2.00000       -1004.954832       -27346.21235
     10       2.00000       -1004.954755       -27346.21025
     11       2.00000       -1004.954755       -27346.21025
     12       2.00000       -1004.954755       -27346.21025
     13       2.00000       -1004.954755       -27346.21025
     14       2.00000       -1004.954755       -27346.21025
     15       2.00000       -1004.954755       -27346.21025
     16       2.00000       -1004.954755       -27346.21025
     17       2.00000        -179.432687        -4882.61184
     18       2.00000        -179.432687        -4882.61184
     19       2.00000        -179.432484        -4882.60632
     20       2.00000        -179.432484        -4882.60632
     21       2.00000        -179.432484        -4882.60632
     22       2.00000        -179.432484        -4882.60632
     23       2.00000        -179.432310        -4882.60158
     24       2.00000        -179.432310        -4882.60158
     25       2.00000        -160.995015        -4380.89726
     26       2.00000        -160.995015        -4380.89726
     27       2.00000        -160.995013        -4380.89721
     28       2.00000        -160.995013        -4380.89721
     29       2.00000        -160.995013        -4380.89721
     30       2.00000        -160.995013        -4380.89720
     31       2.00000        -160.994811        -4380.89171
     32       2.00000        -160.994811        -4380.89171
     33       2.00000        -160.994811        -4380.89171
     34       2.00000        -160.994811        -4380.89171
     35       2.00000        -160.994811        -4380.89171
     36       2.00000        -160.994811        -4380.89171
     37       2.00000        -160.994811        -4380.89171
     38       2.00000        -160.994811        -4380.89171
     39       2.00000        -160.994811        -4380.89171
     40       2.00000        -160.994811        -4380.89171
     41       2.00000        -160.994811        -4380.89171
     42       2.00000        -160.994811        -4380.89171
     43       2.00000        -160.994638        -4380.88700
     44       2.00000        -160.994638        -4380.88700
     45       2.00000        -160.994638        -4380.88700
     46       2.00000        -160.994638        -4380.88700
     47       2.00000        -160.994636        -4380.88695
     48       2.00000        -160.994636        -4380.88695
     49       2.00000        -145.515178        -3959.66947
     50       2.00000        -145.515100        -3959.66735
     51       2.00000        -145.515100        -3959.66735
     52       2.00000        -145.515100        -3959.66735
     53       2.00000        -145.515100        -3959.66735
     54       2.00000        -145.515100        -3959.66735
     55       2.00000        -145.515100        -3959.66735
     56       2.00000        -145.515100        -3959.66735
     57       2.00000        -130.516517        -3551.53514
     58       2.00000        -130.516512        -3551.53499
     59       2.00000        -130.516507        -3551.53487
     60       2.00000        -130.516434        -3551.53288
     61       2.00000        -130.516434        -3551.53288
     62       2.00000        -130.516434        -3551.53288
     63       2.00000        -130.516434        -3551.53288
     64       2.00000        -130.516434        -3551.53288
     65       2.00000        -130.516434        -3551.53288
     66       2.00000        -130.516434        -3551.53288
     67       2.00000        -130.516434        -3551.53288
     68       2.00000        -130.516434        -3551.53288
     69       2.00000        -130.516434        -3551.53288
     70       2.00000        -130.516434        -3551.53288
     71       2.00000        -130.516434        -3551.53288
     72       2.00000        -130.516434        -3551.53288
     73       2.00000        -130.516434        -3551.53288
     74       2.00000        -130.516434        -3551.53288
     75       2.00000        -130.516434        -3551.53288
     76       2.00000        -130.516434        -3551.53288
     77       2.00000        -130.516434        -3551.53288
     78       2.00000        -130.516434        -3551.53288
     79       2.00000        -130.516434        -3551.53288
     80       2.00000        -130.516434        -3551.53288
     81       2.00000         -35.513908         -966.38262
     82       2.00000         -35.513908         -966.38261
     83       2.00000         -35.513696         -966.37683
     84       2.00000         -35.513696         -966.37683
     85       2.00000         -35.513696         -966.37683
     86       2.00000         -35.513696         -966.37683
     87       2.00000         -35.513513         -966.37186
     88       2.00000         -35.513513         -966.37186
     89       2.00000         -29.568493         -804.59964
     90       2.00000         -29.568493         -804.59964
     91       2.00000         -29.568475         -804.59914
     92       2.00000         -29.568475         -804.59913
     93       2.00000         -29.568474         -804.59912
     94       2.00000         -29.568474         -804.59912
     95       2.00000         -29.568268         -804.59351
     96       2.00000         -29.568268         -804.59351
     97       2.00000         -29.568268         -804.59351
     98       2.00000         -29.568268         -804.59351
     99       2.00000         -29.568268         -804.59351
    100       2.00000         -29.568268         -804.59351
    101       2.00000         -29.568268         -804.59351
    102       2.00000         -29.568268         -804.59351
    103       2.00000         -29.568268         -804.59351
    104       2.00000         -29.568268         -804.59351
    105       2.00000         -29.568268         -804.59351
    106       2.00000         -29.568268         -804.59351
    107       2.00000         -29.568091         -804.58869
    108       2.00000         -29.568091         -804.58869
    109       2.00000         -29.568091         -804.58869
    110       2.00000         -29.568091         -804.58868
    111       2.00000         -29.568074         -804.58824
    112       2.00000         -29.568074         -804.58824
    113       2.00000         -26.997285         -734.63351
    114       2.00000         -26.997203         -734.63127
    115       2.00000         -26.997203         -734.63127
    116       2.00000         -26.997203         -734.63127
    117       2.00000         -26.997203         -734.63127
    118       2.00000         -26.997203         -734.63127
    119       2.00000         -26.997203         -734.63127
    120       2.00000         -26.997203         -734.63127
    121       2.00000         -22.109810         -601.63854
    122       2.00000         -22.109757         -601.63710
    123       2.00000         -22.109714         -601.63592
    124       2.00000         -22.109678         -601.63495
    125       2.00000         -22.109678         -601.63495
    126       2.00000         -22.109678         -601.63495
    127       2.00000         -22.109678         -601.63495
    128       2.00000         -22.109678         -601.63495
    129       2.00000         -22.109678         -601.63495
    130       2.00000         -22.109678         -601.63495
    131       2.00000         -22.109678         -601.63495
    132       2.00000         -22.109678         -601.63495
    133       2.00000         -22.109678         -601.63495
    134       2.00000         -22.109678         -601.63495
    135       2.00000         -22.109678         -601.63495
    136       2.00000         -22.109678         -601.63495
    137       2.00000         -22.109678         -601.63495
    138       2.00000         -22.109678         -601.63495
    139       2.00000         -22.109678         -601.63495
    140       2.00000         -22.109678         -601.63495
    141       2.00000         -22.109678         -601.63495
    142       2.00000         -22.109678         -601.63495
    143       2.00000         -22.109678         -601.63495
    144       2.00000         -22.109678         -601.63495
    145       2.00000         -20.599430         -560.53900
    146       2.00000         -20.599430         -560.53900
    147       2.00000         -20.599424         -560.53885
    148       2.00000         -20.599424         -560.53885
    149       2.00000         -20.599423         -560.53883
    150       2.00000         -20.599423         -560.53883
    151       2.00000         -20.599413         -560.53855
    152       2.00000         -20.599413         -560.53855
    153       2.00000         -20.599412         -560.53853
    154       2.00000         -20.599412         -560.53853
    155       2.00000         -20.599210         -560.53303
    156       2.00000         -20.599210         -560.53303
    157       2.00000         -20.599210         -560.53303
    158       2.00000         -20.599210         -560.53303
    159       2.00000         -20.599210         -560.53303
    160       2.00000         -20.599210         -560.53303
    161       2.00000         -20.599210         -560.53303
    162       2.00000         -20.599210         -560.53303
    163       2.00000         -20.599210         -560.53303
    164       2.00000         -20.599210         -560.53303
    165       2.00000         -20.599210         -560.53303
    166       2.00000         -20.599210         -560.53303
    167       2.00000         -20.599207         -560.53296
    168       2.00000         -20.599207         -560.53296
    169       2.00000         -20.599207         -560.53296
    170       2.00000         -20.599207         -560.53296
    171       2.00000         -20.599207         -560.53296
    172       2.00000         -20.599207         -560.53296
    173       2.00000         -20.599207         -560.53296
    174       2.00000         -20.599207         -560.53296
    175       2.00000         -20.599035         -560.52827
    176       2.00000         -20.599035         -560.52827
    177       2.00000         -20.599035         -560.52825
    178       2.00000         -20.599035         -560.52825
    179       2.00000         -20.599024         -560.52797
    180       2.00000         -20.599024         -560.52796
    181       2.00000         -20.599023         -560.52794
    182       2.00000         -20.599023         -560.52794
    183       2.00000         -20.599022         -560.52790
    184       2.00000         -20.599022         -560.52790
    185       2.00000         -14.475569         -393.90027
    186       2.00000         -14.475566         -393.90020
    187       2.00000         -14.475531         -393.89924
    188       2.00000         -14.475504         -393.89849
    189       2.00000         -14.475497         -393.89831
    190       2.00000         -14.475454         -393.89715
    191       2.00000         -14.475454         -393.89715
    192       2.00000         -14.475454         -393.89715
    193       2.00000         -14.475454         -393.89715
    194       2.00000         -14.475454         -393.89715
    195       2.00000         -14.475454         -393.89715
    196       2.00000         -14.475454         -393.89715
    197       2.00000         -14.475454         -393.89715
    198       2.00000         -14.475454         -393.89715
    199       2.00000         -14.475454         -393.89715
    200       2.00000         -14.475454         -393.89715
    201       2.00000         -14.475454         -393.89715
    202       2.00000         -14.475454         -393.89715
    203       2.00000         -14.475454         -393.89715
    204       2.00000         -14.475454         -393.89715
    205       2.00000         -14.475454         -393.89715
    206       2.00000         -14.475454         -393.89715
    207       2.00000         -14.475454         -393.89715
    208       2.00000         -14.475454         -393.89715
    209       2.00000         -14.475454         -393.89715
    210       2.00000         -14.475454         -393.89715
    211       2.00000         -14.475448         -393.89697
    212       2.00000         -14.475448         -393.89697
    213       2.00000         -14.475448         -393.89697
    214       2.00000         -14.475448         -393.89697
    215       2.00000         -14.475448         -393.89697
    216       2.00000         -14.475448         -393.89697
    217       2.00000         -14.475448         -393.89697
    218       2.00000         -14.475448         -393.89697
    219       2.00000         -14.475448         -393.89697
    220       2.00000         -14.475448         -393.89697
    221       2.00000         -14.475448         -393.89697
    222       2.00000         -14.475448         -393.89697
    223       2.00000         -14.475448         -393.89697
    224       2.00000         -14.475448         -393.89697
    225       2.00000          -6.038101         -164.30508
    226       2.00000          -6.038101         -164.30508
    227       2.00000          -6.037831         -164.29775
    228       2.00000          -6.037831         -164.29775
    229       2.00000          -6.037831         -164.29775
    230       2.00000          -6.037831         -164.29775
    231       2.00000          -6.037598         -164.29141
    232       2.00000          -6.037598         -164.29141
    233       2.00000          -4.201005         -114.31516
    234       2.00000          -4.201004         -114.31515
    235       2.00000          -4.200863         -114.31130
    236       2.00000          -4.200863         -114.31130
    237       2.00000          -4.200860         -114.31121
    238       2.00000          -4.200860         -114.31120
    239       2.00000          -4.200627         -114.30486
    240       2.00000          -4.200627         -114.30486
    241       2.00000          -4.200627         -114.30486
    242       2.00000          -4.200627         -114.30486
    243       2.00000          -4.200626         -114.30486
    244       2.00000          -4.200626         -114.30486
    245       2.00000          -4.200626         -114.30486
    246       2.00000          -4.200626         -114.30486
    247       2.00000          -4.200626         -114.30485
    248       2.00000          -4.200626         -114.30485
    249       2.00000          -4.200626         -114.30485
    250       2.00000          -4.200626         -114.30485
    251       2.00000          -4.200425         -114.29937
    252       2.00000          -4.200424         -114.29936
    253       2.00000          -4.200422         -114.29929
    254       2.00000          -4.200422         -114.29929
    255       2.00000          -4.200298         -114.29592
    256       2.00000          -4.200298         -114.29591
    257       2.00000          -3.892303         -105.91496
    258       2.00000          -3.892193         -105.91195
    259       2.00000          -3.892193         -105.91195
    260       2.00000          -3.892193         -105.91195
    261       2.00000          -3.892193         -105.91195
    262       2.00000          -3.892193         -105.91195
    263       2.00000          -3.892193         -105.91195
    264       2.00000          -3.892193         -105.91195
    265       2.00000          -2.461874          -66.99100
    266       2.00000          -2.461362          -66.97706
    267       2.00000          -2.461274          -66.97467
    268       2.00000          -2.461274          -66.97467
    269       2.00000          -2.461274          -66.97467
    270       2.00000          -2.461274          -66.97467
    271       2.00000          -2.461273          -66.97465
    272       2.00000          -2.461273          -66.97465
    273       2.00000          -2.461273          -66.97465
    274       2.00000          -2.461272          -66.97462
    275       2.00000          -2.461272          -66.97461
    276       2.00000          -2.461272          -66.97461
    277       2.00000          -2.461272          -66.97461
    278       2.00000          -2.461272          -66.97461
    279       2.00000          -2.461272          -66.97461
    280       2.00000          -2.461272          -66.97461
    281       2.00000          -2.461271          -66.97460
    282       2.00000          -2.461271          -66.97460
    283       2.00000          -2.461271          -66.97460
    284       2.00000          -2.461271          -66.97460
    285       2.00000          -2.461271          -66.97459
    286       2.00000          -2.461271          -66.97459
    287       2.00000          -2.461271          -66.97458
    288       2.00000          -2.460942          -66.96563
    289       2.00000          -1.530677          -41.65184
    290       2.00000          -1.530662          -41.65143
    291       2.00000          -1.530504          -41.64712
    292       2.00000          -1.530489          -41.64673
    293       2.00000          -1.530449          -41.64564
    294       2.00000          -1.530449          -41.64563
    295       2.00000          -1.530205          -41.63899
    296       2.00000          -1.530198          -41.63880
    297       2.00000          -1.530198          -41.63880
    298       2.00000          -1.530192          -41.63864
    299       2.00000          -1.530192          -41.63863
    300       2.00000          -1.530191          -41.63862
    301       2.00000          -1.530182          -41.63836
    302       2.00000          -1.530182          -41.63836
    303       2.00000          -1.530181          -41.63835
    304       2.00000          -1.530178          -41.63827
    305       2.00000          -1.530178          -41.63826
    306       2.00000          -1.530178          -41.63826
    307       2.00000          -1.530082          -41.63564
    308       2.00000          -1.530078          -41.63555
    309       2.00000          -1.530032          -41.63429
    310       2.00000          -1.530028          -41.63418
    311       2.00000          -1.529970          -41.63261
    312       2.00000          -1.529970          -41.63260
    313       2.00000          -1.529948          -41.63200
    314       2.00000          -1.529937          -41.63171
    315       2.00000          -1.529774          -41.62728
    316       2.00000          -1.529765          -41.62703
    317       2.00000          -1.529748          -41.62656
    318       2.00000          -1.529748          -41.62655
    319       2.00000          -1.529747          -41.62654
    320       2.00000          -1.529746          -41.62650
    321       2.00000          -1.529746          -41.62650
    322       2.00000          -1.529738          -41.62630
    323       2.00000          -1.529738          -41.62630
    324       2.00000          -1.529738          -41.62630
    325       2.00000          -1.529474          -41.61911
    326       2.00000          -1.529466          -41.61888
    327       2.00000          -1.529444          -41.61828
    328       2.00000          -1.529440          -41.61819
    329       2.00000          -0.605907          -16.48756
    330       2.00000          -0.590923          -16.07982
    331       2.00000          -0.590849          -16.07782
    332       2.00000          -0.589580          -16.04328
    333       2.00000          -0.589465          -16.04017
    334       2.00000          -0.585598          -15.93494
    335       2.00000          -0.584932          -15.91680
    336       2.00000          -0.584316          -15.90005
    337       2.00000          -0.452617          -12.31634
    338       2.00000          -0.452347          -12.30898
    339       2.00000          -0.452066          -12.30133
    340       2.00000          -0.449827          -12.24043
    341       2.00000          -0.449571          -12.23345
    342       2.00000          -0.449319          -12.22659
    343       2.00000          -0.449262          -12.22504
    344       2.00000          -0.449223          -12.22398
    345       2.00000          -0.449201          -12.22338
    346       2.00000          -0.449128          -12.22140
    347       2.00000          -0.448722          -12.21033
    348       2.00000          -0.445377          -12.11931
    349       2.00000          -0.445323          -12.11785
    350       2.00000          -0.445272          -12.11646
    351       2.00000          -0.444777          -12.10300
    352       2.00000          -0.444446          -12.09399
    353       2.00000          -0.444437          -12.09374
    354       2.00000          -0.444429          -12.09352
    355       2.00000          -0.444414          -12.09313
    356       2.00000          -0.444011          -12.08214
    357       2.00000          -0.439381          -11.95617
    358       2.00000          -0.439347          -11.95524
    359       2.00000          -0.439133          -11.94942
    360       2.00000          -0.439081          -11.94801
    361       2.00000          -0.439034          -11.94673
    362       2.00000          -0.438997          -11.94572
    363       2.00000          -0.438997          -11.94571
    364       2.00000          -0.438996          -11.94570
    365       2.00000          -0.438954          -11.94454
    366       2.00000          -0.438849          -11.94168
    367       2.00000          -0.438030          -11.91939
    368       2.00000          -0.437996          -11.91847
    369       2.00000          -0.437983          -11.91813
    370       2.00000          -0.430783          -11.72219
    371       2.00000          -0.430629          -11.71802
    372       2.00000          -0.430477          -11.71387
    373       2.00000          -0.430266          -11.70815
    374       2.00000          -0.427553          -11.63432
    375       2.00000          -0.427388          -11.62981
    376       2.00000          -0.427271          -11.62664
    377       2.00000          -0.346509           -9.42900
    378       2.00000          -0.345632           -9.40512
    379       2.00000          -0.345423           -9.39945
    380       2.00000          -0.344631           -9.37789
    381       2.00000          -0.337843           -9.19318
    382       2.00000          -0.337819           -9.19253
    383       2.00000          -0.337611           -9.18686
    384       2.00000          -0.257553           -7.00839
    385       2.00000          -0.257003           -6.99341
    386       2.00000          -0.256983           -6.99285
    387       2.00000          -0.256982           -6.99284
    388       2.00000          -0.256980           -6.99279
    389       2.00000          -0.256472           -6.97895
    390       2.00000          -0.218860           -5.95549
    391       2.00000          -0.218423           -5.94359
    392       2.00000          -0.217986           -5.93170
    393       2.00000          -0.217965           -5.93114
    394       2.00000          -0.217808           -5.92687
    395       2.00000          -0.217783           -5.92617
    396       2.00000          -0.217319           -5.91356
    397       2.00000          -0.216993           -5.90467
    398       2.00000          -0.190751           -5.19061
    399       2.00000          -0.190498           -5.18371
    400       2.00000          -0.190358           -5.17992
    401       0.00000          -0.150434           -4.09351
    402       0.00000          -0.111049           -3.02180
    403       0.00000          -0.110951           -3.01913
    404       0.00000          -0.110368           -3.00326
    405       0.00000          -0.110219           -2.99921
    406       0.00000          -0.080271           -2.18428
    407       0.00000          -0.080042           -2.17804
    408       0.00000          -0.079406           -2.16075
    409       0.00000          -0.079406           -2.16073
    410       0.00000          -0.078538           -2.13712
    411       0.00000          -0.078111           -2.12550
    412       0.00000          -0.003213           -0.08744
    413       0.00000          -0.003056           -0.08315
    414       0.00000          -0.002761           -0.07512
    415       0.00000           0.018240            0.49633
    416       0.00000           0.018298            0.49792
    417       0.00000           0.019838            0.53982
    418       0.00000           0.019898            0.54144
    419       0.00000           0.019900            0.54150
    420       0.00000           0.019983            0.54376
    421       0.00000           0.021592            0.58756
    422       0.00000           0.021753            0.59194
    423       0.00000           0.092274            2.51089
    424       0.00000           0.092894            2.52778
    425       0.00000           0.093997            2.55778
    426       0.00000           0.094494            2.57131
    427       0.00000           0.115021            3.12989
    428       0.00000           0.151450            4.12117
    429       0.00000           0.151532            4.12338
    430       0.00000           0.151543            4.12369
    431       0.00000           0.163166            4.43997
    432       0.00000           0.163189            4.44059
    433       0.00000           0.164176            4.46745
    434       0.00000           0.164191            4.46787
    435       0.00000           0.164349            4.47217
    436       0.00000           0.164647            4.48029
    437       0.00000           0.164867            4.48625
    438       0.00000           0.165059            4.49149
    439       0.00000           0.165921            4.51495
    440       0.00000           0.166474            4.52999
    441       0.00000           0.187984            5.11530
    442       0.00000           0.188017            5.11619
    443       0.00000           0.226261            6.15688
    444       0.00000           0.226378            6.16007
    445       0.00000           0.226711            6.16912
    446       0.00000           0.226788            6.17121
    447       0.00000           0.227234            6.18335
    448       0.00000           0.227282            6.18465
    449       0.00000           0.227568            6.19245
    450       0.00000           0.227655            6.19480
    451       0.00000           0.238875            6.50012
    452       0.00000           0.238990            6.50324
    453       0.00000           0.239166            6.50805
    454       0.00000           0.251175            6.83482
    455       0.00000           0.251868            6.85367
    456       0.00000           0.252275            6.86476
    457       0.00000           0.261681            7.12070
    458       0.00000           0.262180            7.13427
    459       0.00000           0.263108            7.15954
    460       0.00000           0.263506            7.17036
    461       0.00000           0.263571            7.17214
    462       0.00000           0.263812            7.17869
    463       0.00000           0.263875            7.18041
    464       0.00000           0.263919            7.18160
    465       0.00000           0.264090            7.18624
    466       0.00000           0.264834            7.20651
    467       0.00000           0.278265            7.57198
    468       0.00000           0.278698            7.58376
    469       0.00000           0.279293            7.59996
    470       0.00000           0.279306            7.60030
    471       0.00000           0.279438            7.60390
    472       0.00000           0.279443            7.60404
    473       0.00000           0.280142            7.62306
    474       0.00000           0.280585            7.63512
    475       0.00000           0.310172            8.44020
    476       0.00000           0.311031            8.46357
    477       0.00000           0.311720            8.48232
    478       0.00000           0.364625            9.92195
    479       0.00000           0.364705            9.92414
    480       0.00000           0.364723            9.92463
    481       0.00000           0.443132           12.05822
    482       0.00000           0.443254           12.06156
    483       0.00000           0.443270           12.06198
    484       0.00000           0.451312           12.28082
    485       0.00000           0.451362           12.28219
    486       0.00000           0.451596           12.28856
    487       0.00000           0.451600           12.28866
    488       0.00000           0.453113           12.32984

  What follows are estimated values for band gap, HOMO, LUMO, etc.
  | They are estimated on a discrete k-point grid and not necessarily exact.
  | For converged numbers, create a DOS and/or band structure plot on a denser k-grid.

  Highest occupied state (VBM) at     -5.17991829 eV (relative to internal zero)
  | Occupation number:      2.00000000
  | K-point:       1 at    0.000000    0.000000    0.000000 (in units of recip. lattice)

  Lowest unoccupied state (CBM) at    -4.09351304 eV (relative to internal zero)
  | Occupation number:      0.00000000
  | K-point:       1 at    0.000000    0.000000    0.000000 (in units of recip. lattice)

  ESTIMATED overall HOMO-LUMO gap:      1.08640525 eV between HOMO at k-point 1 and LUMO at k-point 1
  | This appears to be a direct band gap.
  The gap value is above 0.2 eV. Unless you are using a very sparse k-point grid,
  this system is most likely an insulator or a semiconductor.
  Calculating total energy contributions from superposition of free atom densities.

  Total energy components:
  | Sum of eigenvalues            :      -61499.36700422 Ha    -1673482.92205843 eV
  | XC energy correction          :       -2657.12525624 Ha      -72304.05701233 eV
  | XC potential correction       :        3466.87445540 Ha       94338.45381916 eV
  | Free-atom electrostatic energy:      -39777.62948154 Ha    -1082404.37032062 eV
  | Hartree energy correction     :           0.00000000 Ha           0.00000000 eV
  | Entropy correction            :           0.00000000 Ha           0.00000000 eV
  | ---------------------------
  | Total energy                  :     -100467.24728660 Ha    -2733852.89557222 eV
  | Total energy, T -> 0          :     -100467.24728660 Ha    -2733852.89557222 eV  <-- do not rely on this value for anything but (periodic) metals
  | Electronic free energy        :     -100467.24728660 Ha    -2733852.89557222 eV

  Derived energy quantities:
  | Kinetic energy                :      104978.37413906 Ha     2856606.90288281 eV
  | Electrostatic energy          :     -202788.49616941 Ha    -5518155.74144270 eV
  | Energy correction for multipole
  | error in Hartree potential    :           0.00000000 Ha           0.00000000 eV
  | Sum of eigenvalues per atom                           :     -104592.68262865 eV
  | Total energy (T->0) per atom                          :     -170865.80597326 eV  <-- do not rely on this value for anything but (periodic) metals
  | Electronic free energy per atom                       :     -170865.80597326 eV
  Initialize hartree_potential_storage
  Max. number of atoms included in rho_multipole:           16

  End scf initialization - timings             :  max(cpu_time)    wall_clock(cpu1)
  | Time for scf. initialization                :       12.967 s          12.968 s
  | Boundary condition initialization           :        0.160 s           0.160 s
  | Integration                                 :        1.331 s           1.330 s
  | Solution of K.-S. eqns.                     :       10.783 s          10.783 s
  | Grid partitioning                           :        0.310 s           0.310 s
  | Preloading free-atom quantities on grid     :        0.446 s           0.446 s
  | Free-atom superposition energy              :        0.083 s           0.083 s
  | Total energy evaluation                     :        0.002 s           0.003 s

  Partial memory accounting:
  | Current value for overall tracked memory usage:
  |   Minimum:      233.543 MB (on task 0)
  |   Maximum:      238.666 MB (on task 1)
  |   Average:      235.251 MB
  | Peak value for overall tracked memory usage:
  |   Minimum:      262.450 MB (on task 0 after allocating eval_tmp)
  |   Maximum:      267.573 MB (on task 1 after allocating eval_tmp)
  |   Average:      264.157 MB
  | Largest tracked array allocation so far:
  |   Minimum:      220.291 MB (KS_eigenvector_complex on task 0)
  |   Maximum:      225.414 MB (KS_eigenvector_complex on task 1)
  |   Average:      221.999 MB
  Note:  These values currently only include a subset of arrays which are explicitly tracked.
  The "true" memory usage will be greater.
------------------------------------------------------------
  Time for density update prior                :  max(cpu_time)    wall_clock(cpu1)
  | self-consistency iterative process          :        1.930 s           1.930 s
------------------------------------------------------------
Convergence:    q app. |  density  | eigen (eV) | Etot (eV) | forces (eV/A) |       CPU time |     Clock time
  SCF    1 : -0.29E-11 |  0.22E+00 |  -0.67E+01 |  0.25E+00 |             . |       13.925 s |       13.926 s
  SCF    2 : -0.14E-11 |  0.21E+00 |  -0.62E+02 |  0.14E+01 |             . |       14.059 s |       14.059 s
  SCF    3 : -0.26E-11 |  0.10E+00 |  -0.73E+01 |  0.12E+00 |             . |       14.124 s |       14.124 s
  SCF    4 : -0.32E-11 |  0.35E-01 |  -0.14E+01 |  0.57E-02 |             . |       14.101 s |       14.100 s
  SCF    5 :  0.50E-12 |  0.11E-01 |  -0.21E+02 |  0.13E-02 |             . |       14.100 s |       14.100 s
  SCF    6 : -0.61E-12 |  0.87E-02 |   0.12E+02 |  0.14E-02 |             . |       14.101 s |       14.102 s
  SCF    7 : -0.37E-11 |  0.37E-02 |   0.28E+01 |  0.70E-03 |             . |       14.120 s |       14.120 s
  SCF    8 : -0.45E-11 |  0.25E-02 |   0.27E+01 |  0.81E-03 |             . |       14.137 s |       14.136 s
  SCF    9 : -0.34E-11 |  0.19E-02 |  -0.56E+01 |  0.12E-03 |             . |       14.147 s |       14.148 s
  SCF   10 : -0.96E-12 |  0.36E-03 |  -0.35E+00 |  0.68E-06 |             . |       14.122 s |       14.122 s
  SCF   11 : -0.13E-11 |  0.13E-03 |  -0.20E+00 | -0.97E-05 |             . |       14.122 s |       14.122 s
  SCF   12 : -0.47E-11 |  0.29E-04 |   0.74E-01 | -0.18E-05 |             . |       14.113 s |       14.113 s
  SCF   13 :  0.20E-11 |  0.12E-04 |   0.63E-02 |  0.17E-06 |             . |       14.088 s |       14.088 s
  SCF   14 : -0.17E-11 |  0.59E-05 |  -0.34E-03 |  0.61E-06 |             . |       14.075 s |       14.075 s
  SCF   15 : -0.30E-11 |  0.27E-05 |   0.91E-03 | -0.76E-07 |             . |       14.089 s |       14.090 s
  SCF   16 :  0.24E-11 |  0.15E-05 |   0.33E-03 |  0.15E-06 |             . |       14.071 s |       14.071 s
  SCF   17 : -0.18E-11 |  0.51E-06 |  -0.26E-03 |  0.72E-07 |             . |       14.086 s |       14.086 s
  SCF   18 : -0.17E-11 |  0.26E-06 |  -0.68E-04 | -0.59E-07 |             . |       14.064 s |       14.064 s
  SCF   19 :  0.88E-12 |  0.18E-06 |   0.90E-04 |  0.31E-07 |             . |       14.089 s |       14.090 s
  SCF   20 : -0.20E-11 |  0.28E-07 |   0.86E-05 | -0.55E-07 |             . |       14.063 s |       14.063 s
  SCF   21 : -0.31E-11 |  0.12E-07 |  -0.99E-05 | -0.11E-06 |      0.16E+00 |       34.451 s |       34.451 s
  SCF   22 : -0.25E-11 |  0.10E-07 |  -0.66E-05 |  0.15E-06 |      0.50E-07 |       34.170 s |       34.170 s

  Total energy components:
  | Sum of eigenvalues            :      -61502.53115122 Ha    -1673569.02287897 eV
[...]
     | k-string  230 :        29.542308E-03 /        29.542308E-03 P0
     | k-string  231 :        33.475855E-03 /        33.475855E-03 P0
     | k-string  232 :        32.103835E-03 /        32.103835E-03 P0
     | k-string  233 :        26.191266E-03 /        26.191266E-03 P0
     | k-string  234 :        18.341983E-03 /        18.341983E-03 P0
     | k-string  235 :        10.710750E-03 /        10.710750E-03 P0
     | k-string  236 :         4.365517E-03 /         4.365517E-03 P0
     | k-string  237 :       999.596391E-03 /      -403.608563E-06 P0
     | k-string  238 :       996.302246E-03 /        -3.697754E-03 P0
     | k-string  239 :       994.243624E-03 /        -5.756376E-03 P0
     | k-string  240 :       993.186184E-03 /        -6.813816E-03 P0
     | k-string  241 :       992.266617E-03 /        -7.733383E-03 P0
     | k-string  242 :       991.653325E-03 /        -8.346675E-03 P0
     | k-string  243 :       991.843512E-03 /        -8.156488E-03 P0
     | k-string  244 :       992.863351E-03 /        -7.136649E-03 P0
     | k-string  245 :       994.832761E-03 /        -5.167239E-03 P0
     | k-string  246 :       997.925421E-03 /        -2.074579E-03 P0
     | k-string  247 :         2.287612E-03 /         2.287612E-03 P0
     | k-string  248 :         7.899982E-03 /         7.899982E-03 P0
     | k-string  249 :        14.367686E-03 /        14.367686E-03 P0
     | k-string  250 :        20.678202E-03 /        20.678202E-03 P0
     | k-string  251 :        25.170504E-03 /        25.170504E-03 P0
     | k-string  252 :        26.191103E-03 /        26.191103E-03 P0
     | k-string  253 :        23.308149E-03 /        23.308149E-03 P0
     | k-string  254 :        17.696947E-03 /        17.696947E-03 P0
     | k-string  255 :        11.147506E-03 /        11.147506E-03 P0
     | k-string  256 :         5.025118E-03 /         5.025118E-03 P0
     | k-string  257 :        10.196725E-06 /        10.196725E-06 P0
     | k-string  258 :       996.282365E-03 /        -3.717635E-03 P0
     | k-string  259 :       993.758540E-03 /        -6.241460E-03 P0
     | k-string  260 :       992.266617E-03 /        -7.733383E-03 P0
     | k-string  261 :       991.431878E-03 /        -8.568122E-03 P0
     | k-string  262 :       990.411968E-03 /        -9.588032E-03 P0
     | k-string  263 :       990.201986E-03 /        -9.798014E-03 P0
     | k-string  264 :       990.785075E-03 /        -9.214925E-03 P0
     | k-string  265 :       992.211403E-03 /        -7.788597E-03 P0
     | k-string  266 :       994.573599E-03 /        -5.426401E-03 P0
     | k-string  267 :       997.946484E-03 /        -2.053516E-03 P0
     | k-string  268 :         2.287334E-03 /         2.287334E-03 P0
     | k-string  269 :         7.303376E-03 /         7.303376E-03 P0
     | k-string  270 :        12.331989E-03 /        12.331989E-03 P0
     | k-string  271 :        16.360610E-03 /        16.360610E-03 P0
     | k-string  272 :        18.341583E-03 /        18.341583E-03 P0
     | k-string  273 :        17.696744E-03 /        17.696744E-03 P0
     | k-string  274 :        14.620718E-03 /        14.620718E-03 P0
     | k-string  275 :         9.977564E-03 /         9.977564E-03 P0
     | k-string  276 :         4.854463E-03 /         4.854463E-03 P0
     | k-string  277 :       111.409159E-06 /       111.409159E-06 P0
     | k-string  278 :       996.221034E-03 /        -3.778966E-03 P0
     | k-string  279 :       993.337428E-03 /        -6.662572E-03 P0
     | k-string  280 :       991.431878E-03 /        -8.568122E-03 P0
     | k-string  281 :       991.025297E-03 /        -8.974703E-03 P0
     | k-string  282 :       989.609824E-03 /       -10.390176E-03 P0
     | k-string  283 :       989.001247E-03 /       -10.998753E-03 P0
     | k-string  284 :       989.181243E-03 /       -10.818757E-03 P0
     | k-string  285 :       990.157142E-03 /        -9.842858E-03 P0
     | k-string  286 :       991.953871E-03 /        -8.046129E-03 P0
     | k-string  287 :       994.573323E-03 /        -5.426677E-03 P0
     | k-string  288 :       997.924864E-03 /        -2.075136E-03 P0
     | k-string  289 :         1.745268E-03 /         1.745268E-03 P0
     | k-string  290 :         5.556541E-03 /         5.556541E-03 P0
     | k-string  291 :         8.735111E-03 /         8.735111E-03 P0
     | k-string  292 :        10.710073E-03 /        10.710073E-03 P0
     | k-string  293 :        11.147067E-03 /        11.147067E-03 P0
     | k-string  294 :         9.977356E-03 /         9.977356E-03 P0
     | k-string  295 :         7.386409E-03 /         7.386409E-03 P0
     | k-string  296 :         3.833427E-03 /         3.833427E-03 P0
     | k-string  297 :       999.945537E-03 /       -54.462721E-06 P0
     | k-string  298 :       996.297634E-03 /        -3.702366E-03 P0
     | k-string  299 :       993.266824E-03 /        -6.733176E-03 P0
     | k-string  300 :       991.025297E-03 /        -8.974703E-03 P0
     | k-string  301 :       991.211216E-03 /        -8.788784E-03 P0
     | k-string  302 :       989.463437E-03 /       -10.536563E-03 P0
     | k-string  303 :       988.463560E-03 /       -11.536440E-03 P0
     | k-string  304 :       988.245868E-03 /       -11.754132E-03 P0
     | k-string  305 :       988.815623E-03 /       -11.184377E-03 P0
     | k-string  306 :       990.156903E-03 /        -9.843097E-03 P0
     | k-string  307 :       992.210886E-03 /        -7.789114E-03 P0
     | k-string  308 :       994.831960E-03 /        -5.168040E-03 P0
     | k-string  309 :       997.745778E-03 /        -2.254222E-03 P0
     | k-string  310 :       557.144882E-06 /       557.144882E-06 P0
     | k-string  311 :         2.853432E-03 /         2.853432E-03 P0
     | k-string  312 :         4.364572E-03 /         4.364572E-03 P0
     | k-string  313 :         5.024435E-03 /         5.024435E-03 P0
     | k-string  314 :         4.854044E-03 /         4.854044E-03 P0
     | k-string  315 :         3.833237E-03 /         3.833237E-03 P0
     | k-string  316 :         1.951852E-03 /         1.951852E-03 P0
     | k-string  317 :       999.367903E-03 /      -632.096527E-06 P0
     | k-string  318 :       996.443293E-03 /        -3.556707E-03 P0
     | k-string  319 :       993.608276E-03 /        -6.391724E-03 P0
     | k-string  320 :       991.211216E-03 /        -8.788784E-03 P0
     | k-string  321 :       991.930990E-03 /        -8.069010E-03 P0
     | k-string  322 :       990.016290E-03 /        -9.983710E-03 P0
     | k-string  323 :       988.682517E-03 /       -11.317483E-03 P0
     | k-string  324 :       988.073846E-03 /       -11.926154E-03 P0
     | k-string  325 :       988.245681E-03 /       -11.754319E-03 P0
     | k-string  326 :       989.180815E-03 /       -10.819185E-03 P0
     | k-string  327 :       990.784368E-03 /        -9.215632E-03 P0
     | k-string  328 :       992.862356E-03 /        -7.137644E-03 P0
     | k-string  329 :       995.109916E-03 /        -4.890084E-03 P0
     | k-string  330 :       997.154715E-03 /        -2.845285E-03 P0
     | k-string  331 :       998.684500E-03 /        -1.315500E-03 P0
     | k-string  332 :       999.595220E-03 /      -404.779780E-06 P0
     | k-string  333 :         9.296626E-06 /         9.296626E-06 P0
     | k-string  334 :       110.796424E-06 /       110.796424E-06 P0
     | k-string  335 :       999.945178E-03 /       -54.822320E-06 P0
     | k-string  336 :       999.367747E-03 /      -632.253186E-06 P0
     | k-string  337 :       998.187516E-03 /        -1.812484E-03 P0
     | k-string  338 :       996.380264E-03 /        -3.619736E-03 P0
     | k-string  339 :       994.171297E-03 /        -5.828703E-03 P0
     | k-string  340 :       991.930990E-03 /        -8.069010E-03 P0
     | k-string  341 :       992.915482E-03 /        -7.084518E-03 P0
     | k-string  342 :       991.133451E-03 /        -8.866549E-03 P0
     | k-string  343 :       989.625964E-03 /       -10.374036E-03 P0
     | k-string  344 :       988.682386E-03 /       -11.317614E-03 P0
     | k-string  345 :       988.463243E-03 /       -11.536757E-03 P0
     | k-string  346 :       989.000689E-03 /       -10.999311E-03 P0
     | k-string  347 :       990.201146E-03 /        -9.798854E-03 P0
     | k-string  348 :       991.842381E-03 /        -8.157619E-03 P0
     | k-string  349 :       993.587058E-03 /        -6.412942E-03 P0
     | k-string  350 :       995.054508E-03 /        -4.945492E-03 P0
     | k-string  351 :       995.967955E-03 /        -4.032045E-03 P0
     | k-string  352 :       996.300908E-03 /        -3.699092E-03 P0
     | k-string  353 :       996.281297E-03 /        -3.718703E-03 P0
     | k-string  354 :       996.220264E-03 /        -3.779736E-03 P0
     | k-string  355 :       996.297134E-03 /        -3.702866E-03 P0
     | k-string  356 :       996.443011E-03 /        -3.556989E-03 P0
     | k-string  357 :       996.380147E-03 /        -3.619853E-03 P0
     | k-string  358 :       995.801762E-03 /        -4.198238E-03 P0
     | k-string  359 :       994.591037E-03 /        -5.408963E-03 P0
     | k-string  360 :       992.915482E-03 /        -7.084518E-03 P0
     | k-string  361 :       993.762681E-03 /        -6.237319E-03 P0
     | k-string  362 :       992.516197E-03 /        -7.483803E-03 P0
     | k-string  363 :       991.133376E-03 /        -8.866624E-03 P0
     | k-string  364 :       990.016086E-03 /        -9.983914E-03 P0
     | k-string  365 :       989.463047E-03 /       -10.536953E-03 P0
     | k-string  366 :       989.609194E-03 /       -10.390806E-03 P0
     | k-string  367 :       990.411055E-03 /        -9.588945E-03 P0
     | k-string  368 :       991.652117E-03 /        -8.347883E-03 P0
     | k-string  369 :       992.976927E-03 /        -7.023073E-03 P0
     | k-string  370 :       993.987615E-03 /        -6.012385E-03 P0
     | k-string  371 :       994.409753E-03 /        -5.590247E-03 P0
     | k-string  372 :       994.242181E-03 /        -5.757819E-03 P0
     | k-string  373 :       993.757363E-03 /        -6.242637E-03 P0
     | k-string  374 :       993.336551E-03 /        -6.663449E-03 P0
     | k-string  375 :       993.266227E-03 /        -6.733773E-03 P0
     | k-string  376 :       993.607909E-03 /        -6.392091E-03 P0
     | k-string  377 :       994.171105E-03 /        -5.828895E-03 P0
     | k-string  378 :       994.590966E-03 /        -5.409034E-03 P0
     | k-string  379 :       994.505386E-03 /        -5.494614E-03 P0
     | k-string  380 :       993.762681E-03 /        -6.237319E-03 P0
     | k-string  381 :       994.097056E-03 /        -5.902944E-03 P0
     | k-string  382 :       993.762656E-03 /        -6.237344E-03 P0
     | k-string  383 :       992.915384E-03 /        -7.084616E-03 P0
     | k-string  384 :       991.930767E-03 /        -8.069233E-03 P0
     | k-string  385 :       991.210811E-03 /        -8.789189E-03 P0
     | k-string  386 :       991.024654E-03 /        -8.975346E-03 P0
     | k-string  387 :       991.430953E-03 /        -8.569047E-03 P0
     | k-string  388 :       992.265393E-03 /        -7.734607E-03 P0
     | k-string  389 :       993.184699E-03 /        -6.815301E-03 P0
     | k-string  390 :       993.784559E-03 /        -6.215441E-03 P0
     | k-string  391 :       993.784559E-03 /        -6.215441E-03 P0
     | k-string  392 :       993.184699E-03 /        -6.815301E-03 P0
     | k-string  393 :       992.265393E-03 /        -7.734607E-03 P0
     | k-string  394 :       991.430953E-03 /        -8.569047E-03 P0
     | k-string  395 :       991.024654E-03 /        -8.975346E-03 P0
     | k-string  396 :       991.210811E-03 /        -8.789189E-03 P0
     | k-string  397 :       991.930767E-03 /        -8.069233E-03 P0
     | k-string  398 :       992.915384E-03 /        -7.084616E-03 P0
     | k-string  399 :       993.762656E-03 /        -6.237344E-03 P0
     | k-string  400 :       994.097056E-03 /        -5.902944E-03 P0
   - Dipole term: Electronic polarization along rec. latt. vec.    1 is:       14.943977E-06 C/m^2 after branch-mapping



  Wannier center evolution                                :  max(cpu_time) wall_clock(cpu1)
  | Total Time                                            :       1977.133         1977.158
------------------------------------------------------------

  Summary for all Polarization Directives:

  * Ionic Polarization along rec. latt. vecs. is (C/m^2):       -74.683462E-03       74.641509E-03       74.683302E-03
  * Electronic Contributions:
    Summarizing all directives:
    - Directive    1 in direction of rec. latt. vec.  1 yields the electronic polarization (Berry term):          70.798432E-03 (C/m^2)
    - Directive    1 in direction of rec. latt. vec.  1 yields the electronic polarization (Dipole term):         14.943977E-06 (C/m^2)
  * Full Polarizations (Electron + Ions):
    Summarizing all directives:
    - Directive    1 in direction of rec. latt. vec.  1 yields the full polarization      :        -3.870086E-03 (C/m^2)

------------------------------------------------------------


------------------------------------------------------------------------------
  Final output of selected total energy values:

  The following output summarizes some interesting total energy values
  at the end of a run (AFTER all relaxation, molecular dynamics, etc.).

  | Total energy of the DFT / Hartree-Fock s.c.f. calculation      :       -2733851.102707971 eV
  | Final zero-broadening corrected energy (caution - metals only) :       -2733851.102707971 eV
  | For reference only, the value of 1 Hartree used in FHI-aims is :             27.211384500 eV
  | For reference only, the overall average (free atom contribution
  | + realspace contribution) of the electrostatic potential after
  | s.c.f. convergence is                                          :            -13.760910168 eV

  Before relying on these values, please be sure to understand exactly which
  total energy value is referred to by a given number. Different objects may
  all carry the same name 'total energy'. Definitions:

  Total energy of the DFT / Hartree-Fock s.c.f. calculation:
  | Note that this energy does not include ANY quantities calculated after the
  | s.c.f. cycle, in particular not ANY RPA, MP2, etc. many-body perturbation terms.

  Final zero-broadening corrected energy:
  | For metallic systems only, a broadening of the occupation numbers at the Fermi
  | level can be extrapolated back to zero broadening by an electron-gas inspired
  | formula. For all systems that are not real metals, this value can be
  | meaningless and should be avoided.

------------------------------------------------------------------------------
  Methods described in the following list of references were used in this FHI-aims run.
  If you publish the results, please make sure to cite these reference if they apply.
  FHI-aims is an academic code, and for our developers (often, Ph.D. students
  and postdocs), scientific credit in the community is essential.
  Thank you for helping us!

  For any use of FHI-aims, please cite:

    Volker Blum, Ralf Gehrke, Felix Hanke, Paula Havu, Ville Havu,
    Xinguo Ren, Karsten Reuter, and Matthias Scheffler
    'Ab initio molecular simulations with numeric atom-centered orbitals'
    Computer Physics Communications 180, 2175-2196 (2009)
    http://doi.org/10.1016/j.cpc.2009.06.022


  The provided symmetry information was generated with SPGlib:

    Atsushi Togo, Yusuke Seto, Dimitar Pashov
    SPGlib 1.7.3 obtained from http://spglib.sourceforge.net
    Copyright (C) 2008 Atsushi Togo


  The ELSI infrastructure was used in your run to solve the Kohn-Sham electronic structure.
  Please check out http://elsi-interchange.org to learn more.
  If scalability is important for your project, please acknowledge ELSI by citing:

    V. W-z. Yu, F. Corsetti, A. Garcia, W. P. Huhn, M. Jacquelin, W. Jia,
    B. Lange, L. Lin, J. Lu, W. Mi, A. Seifitokaldani, A. Vazquez-Mayagoitia,
    C. Yang, H. Yang, and V. Blum
    'ELSI: A unified software interface for Kohn-Sham electronic structure solvers'
    Computer Physics Communications 222, 267-285 (2018).
    http://doi.org/10.1016/j.cpc.2017.09.007


  For the real-space grid partitioning and parallelization used in this calculation, please cite:

    Ville Havu, Volker Blum, Paula Havu, and Matthias Scheffler,
    'Efficient O(N) integration for all-electron electronic structure calculation'
    'using numerically tabulated basis functions'
    Journal of Computational Physics 228, 8367-8379 (2009).
    http://doi.org/10.1016/j.jcp.2009.08.008

  Of course, there are many other important community references, e.g., those cited in the
  above references. Our list is limited to references that describe implementations in the
  FHI-aims code. The reason is purely practical (length of this list) - please credit others as well.

 * A warning was issued further up regarding the accuracy of onsite integrals.
   An integral with a negative eigenvalue was among the flagged integrals.
   In most standard situations, this warning is probably harmless.
   If needed, this can be verified by adjusting the radial_multiplier flag.

------------------------------------------------------------
          Leaving FHI-aims.
          Date     :  20230816, Time     :  141833.815

          Computational steps:
          | Number of self-consistency cycles          :           22
          | Number of SCF (re)initializations          :            1

          Detailed time accounting                     :  max(cpu_time)    wall_clock(cpu1)
          | Total time                                  :     2342.980 s        2343.022 s
          | Preparation time                            :        0.300 s           0.300 s
          | Boundary condition initalization            :        0.160 s           0.160 s
          | Grid partitioning                           :        0.310 s           0.310 s
          | Preloading free-atom quantities on grid     :        0.446 s           0.446 s
          | Free-atom superposition energy              :        0.083 s           0.083 s
          | Total time for integrations                 :       22.432 s          22.432 s
          | Total time for solution of K.-S. equations  :      203.240 s         203.241 s
          | Total time for density & force components   :       82.634 s          82.635 s
          | Total time for mixing & preconditioning     :       14.186 s          14.188 s
          | Total time for Hartree multipole update     :        0.061 s           0.060 s
          | Total time for Hartree multipole sum        :       36.175 s          36.175 s
          | Total time for total energy evaluation      :        0.057 s           0.058 s
          | Total time NSC force correction             :        5.651 s           5.651 s
          | Total time for scaled ZORA corrections      :        0.000 s           0.000 s
          | Total time for Wannier Center Evolution     :     1977.133 s        1977.158 s

          Partial memory accounting:
          | Residual value for overall tracked memory usage across tasks:     0.000000 MB (should be 0.000000 MB)
          | Peak values for overall tracked memory usage:
          |   Minimum:      306.275 MB (on task 0 after allocating WCC_evalue_phase_r)
          |   Maximum:      316.521 MB (on task 1 after allocating WCC_evalue_phase_r)
          |   Average:      309.690 MB
          | Largest tracked array allocation:
          |   Minimum:      220.291 MB (KS_eigenvector_complex on task 0)
          |   Maximum:      225.414 MB (KS_eigenvector_complex on task 1)
          |   Average:      221.999 MB
          Note:  These values currently only include a subset of arrays which are explicitly tracked.
          The "true" memory usage will be greater.

          Have a nice day.
------------------------------------------------------------
