16   
4    

1    
 -0.0000000037075032   0.0070710668522759   0.0070710687714540
   0.0007310112   -0.0351089636   -0.0354630745
  -0.0000302849    0.0046847882    0.0043313928
   0.0023958671   -0.0031312516    0.0019206164
  -0.0024265830    0.0022724772   -0.0034805054
   0.0024012227    0.0022713768   -0.0034846296
  -0.0024225970   -0.0031284276    0.0019203937
  -0.0000208265   -0.0001387729   -0.0004910656
  -0.0000267561    0.0005540031    0.0002075548
   0.0003921307    0.0000107037    0.0003558277
  -0.0003203819    0.0000098670    0.0003626085
   0.0000274940   -0.0003489928    0.0000043791
  -0.0000255865    0.0005302982    0.0009851937
   0.0000345043   -0.0003480307    0.0000011467
  -0.0000203284    0.0006294285    0.0008820765
  -0.0153858916    0.0159199355    0.0162705583
   0.0146970056    0.0153215612    0.0156775269

1    
  0.0000000037075032  -0.0070710668522759  -0.0070710687714540
   0.0007141719    0.0351072745    0.0347531206
  -0.0000303504   -0.0046827967   -0.0050371295
  -0.0024269757    0.0031273532   -0.0026256626
   0.0023958641   -0.0022735708    0.0027786849
  -0.0024213348   -0.0022751048    0.0027742414
   0.0023998492    0.0031306802   -0.0026266050
  -0.0000206955    0.0001365907   -0.0002142321
  -0.0000264514   -0.0005574615   -0.0009040313
  -0.0003202617   -0.0000059882    0.0003391874
   0.0003913943   -0.0000071420    0.0003450540
   0.0000274986    0.0003462325    0.0006994631
  -0.0000249518   -0.0006270744   -0.0001741283
   0.0000346658    0.0003474578    0.0006967100
  -0.0000197153   -0.0005286941   -0.0002741417
   0.0147086708   -0.0153270997   -0.0149746618
  -0.0153813780   -0.0159106566   -0.0155558691

9    
 -0.0000000037075032   0.0070710668522759   0.0070710687714540
   0.0003461148    0.0000233122   -0.0003307251
  -0.0003770009    0.0000244950   -0.0003299894
  -0.0000157246   -0.0003329627   -0.0006913687
   0.0000268426    0.0005643735    0.0001520528
  -0.0000102791   -0.0003412451   -0.0006873496
   0.0000303463    0.0005049611    0.0002096567
  -0.0148072527    0.0154080685    0.0150554872
   0.0153996487    0.0158650599    0.0155185818
  -0.0008091773   -0.0449319974   -0.0445769492
   0.0000298815    0.0060524759    0.0064040858
   0.0031583595    0.0007258914    0.0032804433
  -0.0030996048    0.0029253879    0.0010834709
   0.0031651990    0.0029287661    0.0010747759
  -0.0030936988    0.0007286310    0.0032767737
   0.0000325186   -0.0001995080    0.0001515304
   0.0000238272    0.0000542907    0.0004095233

9    
  0.0000000037075032  -0.0070710668522759  -0.0070710687714540
  -0.0003737229   -0.0000236426   -0.0003769253
   0.0003429954   -0.0000221584   -0.0003764461
  -0.0000158764    0.0003391987   -0.0000190188
   0.0000276877   -0.0005047572   -0.0009173845
  -0.0000107952    0.0003316856   -0.0000138493
   0.0000312716   -0.0005633228   -0.0008574415
   0.0154100206   -0.0158730313   -0.0162243377
  -0.0148032681   -0.0154043751   -0.0157531514
  -0.0008261905    0.0449237532    0.0452744977
   0.0000299204   -0.0060504961   -0.0056981787
  -0.0030962811   -0.0007270949   -0.0025725275
   0.0031554842   -0.0029285409   -0.0003696501
  -0.0030890318   -0.0029241191   -0.0003770559
   0.0031607791   -0.0007243448   -0.0025760963
   0.0000328491    0.0002009317    0.0005520622
   0.0000241580   -0.0000496859    0.0003055030
