phonopy:
  version: "2.19.1"
  frequency_unit_conversion_factor: 15.633304
  symmetry_tolerance: 1.00000e-05

space_group:
  type: "Imm2"
  number: 44
  Hall_symbol: "I 2 -2"

supercell_matrix:
- [   2,   0,   0 ]
- [   0,   2,   0 ]
- [   0,   0,   2 ]

primitive_cell:
  lattice:
  - [    -0.000001700000000,     3.242293520000000,     3.242294400000000 ] # a
  - [     3.242297240000000,     0.000002270000000,     3.242296620000000 ] # b
  - [     3.242300790000000,     3.242299280000000,     0.000003170000000 ] # c
  points:
  - symbol: Cd # 1
    coordinates: [  0.000005570000000,  0.000006320000000,  0.999994450000000 ]
    mass: 112.414000
  - symbol: Te # 2
    coordinates: [  0.749994430000000,  0.749993680000001,  0.750005549999999 ]
    mass: 127.600000
  reciprocal_lattice: # without 2pi
  - [    -0.154211842081094,     0.154211763127429,     0.154211763602969 ] # a*
  - [     0.154211585719411,    -0.154211808311771,     0.154211847312951 ] # b*
  - [     0.154211460154441,     0.154211720321193,    -0.154211597610005 ] # c*

unit_cell:
  lattice:
  - [    -0.000001700000000,     3.242293520000000,     3.242294400000000 ] # a
  - [     3.242297240000000,     0.000002270000000,     3.242296620000000 ] # b
  - [     3.242300790000000,     3.242299280000000,     0.000003170000000 ] # c
  points:
  - symbol: Cd # 1
    coordinates: [  0.000005570000000,  0.000006320000000, -0.000005550000000 ]
    mass: 112.414000
    reduced_to: 1
  - symbol: Te # 2
    coordinates: [  0.749994430000000,  0.749993680000001,  0.750005549999999 ]
    mass: 127.600000
    reduced_to: 2

supercell:
  lattice:
  - [    -0.000003400000000,     6.484587040000000,     6.484588800000000 ] # a
  - [     6.484594480000000,     0.000004540000000,     6.484593240000000 ] # b
  - [     6.484601580000000,     6.484598560000000,     0.000006340000000 ] # c
  points:
  - symbol: Cd # 1
    coordinates: [  0.000002785000000,  0.000003160000000,  0.999997225000000 ]
    mass: 112.414000
    reduced_to: 1
  - symbol: Cd # 2
    coordinates: [  0.500002785000000,  0.000003160000000,  0.999997225000000 ]
    mass: 112.414000
    reduced_to: 1
  - symbol: Cd # 3
    coordinates: [  0.000002785000000,  0.500003160000000,  0.999997225000000 ]
    mass: 112.414000
    reduced_to: 1
  - symbol: Cd # 4
    coordinates: [  0.500002785000000,  0.500003160000000,  0.999997225000000 ]
    mass: 112.414000
    reduced_to: 1
  - symbol: Cd # 5
    coordinates: [  0.000002785000000,  0.000003160000000,  0.499997225000000 ]
    mass: 112.414000
    reduced_to: 1
  - symbol: Cd # 6
    coordinates: [  0.500002785000000,  0.000003160000000,  0.499997225000000 ]
    mass: 112.414000
    reduced_to: 1
  - symbol: Cd # 7
    coordinates: [  0.000002785000000,  0.500003160000000,  0.499997225000000 ]
    mass: 112.414000
    reduced_to: 1
  - symbol: Cd # 8
    coordinates: [  0.500002785000000,  0.500003160000000,  0.499997225000000 ]
    mass: 112.414000
    reduced_to: 1
  - symbol: Te # 9
    coordinates: [  0.374997215000000,  0.374996840000001,  0.375002775000000 ]
    mass: 127.600000
    reduced_to: 9
  - symbol: Te # 10
    coordinates: [  0.874997215000000,  0.374996840000001,  0.375002775000000 ]
    mass: 127.600000
    reduced_to: 9
  - symbol: Te # 11
    coordinates: [  0.374997215000000,  0.874996840000001,  0.375002775000000 ]
    mass: 127.600000
    reduced_to: 9
  - symbol: Te # 12
    coordinates: [  0.874997215000000,  0.874996840000001,  0.375002775000000 ]
    mass: 127.600000
    reduced_to: 9
  - symbol: Te # 13
    coordinates: [  0.374997215000000,  0.374996840000001,  0.875002775000000 ]
    mass: 127.600000
    reduced_to: 9
  - symbol: Te # 14
    coordinates: [  0.874997215000000,  0.374996840000001,  0.875002775000000 ]
    mass: 127.600000
    reduced_to: 9
  - symbol: Te # 15
    coordinates: [  0.374997215000000,  0.874996840000001,  0.875002775000000 ]
    mass: 127.600000
    reduced_to: 9
  - symbol: Te # 16
    coordinates: [  0.874997215000000,  0.874996840000001,  0.875002775000000 ]
    mass: 127.600000
    reduced_to: 9

displacements:
- atom:    1
  displacement:
    [  -0.0000000037075032,  0.0070710668522759,  0.0070710687714540 ]
  forces:
  - [   0.0007310112338606, -0.0351089636407602, -0.0354630744722286 ]
  - [  -0.0000302848523129,  0.0046847881785716,  0.0043313928423442 ]
  - [   0.0023958671283636, -0.0031312516174314,  0.0019206163745052 ]
  - [  -0.0024265829563989,  0.0022724772124889, -0.0034805054131389 ]
  - [   0.0024012227264171,  0.0022713767978610, -0.0034846296085251 ]
  - [  -0.0024225969846195, -0.0031284276390682,  0.0019203937322642 ]
  - [  -0.0000208265437143, -0.0001387728773716, -0.0004910656052926 ]
  - [  -0.0000267560817336,  0.0005540031071336,  0.0002075548452751 ]
  - [   0.0003921307190473,  0.0000107036803739,  0.0003558276640280 ]
  - [  -0.0003203819006668,  0.0000098669520250,  0.0003626085009318 ]
  - [   0.0000274940376903, -0.0003489928387227,  0.0000043791314651 ]
  - [  -0.0000255864667366,  0.0005302981806037,  0.0009851937116926 ]
  - [   0.0000345043428663, -0.0003480306734634,  0.0000011466834599 ]
  - [  -0.0000203283627313,  0.0006294284765821,  0.0008820764727191 ]
  - [  -0.0153858916492901,  0.0159199355092817,  0.0162705582655647 ]
  - [   0.0146970056099590,  0.0153215611918958,  0.0156775268749352 ]
- atom:    1
  displacement:
    [   0.0000000037075032, -0.0070710668522759, -0.0070710687714540 ]
  forces:
  - [   0.0007141718720664,  0.0351072745026194,  0.0347531205717151 ]
  - [  -0.0000303503965739, -0.0046827967214009, -0.0050371295034132 ]
  - [  -0.0024269757229010,  0.0031273532076804, -0.0026256626008332 ]
  - [   0.0023958641416957, -0.0022735708436027,  0.0027786848959176 ]
  - [  -0.0024213347662215, -0.0022751047715352,  0.0027742414367651 ]
  - [   0.0023998491557658,  0.0031306801817990, -0.0026266050176663 ]
  - [  -0.0000206955293826,  0.0001365906744759, -0.0002142320694823 ]
  - [  -0.0000264513626987, -0.0005574614687072, -0.0009040313398099 ]
  - [  -0.0003202616967692, -0.0000059882402406,  0.0003391873977228 ]
  - [   0.0003913943190792, -0.0000071419873183,  0.0003450540337010 ]
  - [   0.0000274985576658,  0.0003462324783040,  0.0006994630600676 ]
  - [  -0.0000249518326761, -0.0006270744241098, -0.0001741282737775 ]
  - [   0.0000346657937462,  0.0003474578160423,  0.0006967099812384 ]
  - [  -0.0000197153392178, -0.0005286941375906, -0.0002741416687388 ]
  - [   0.0147086708235484, -0.0153270996531555, -0.0149746617780016 ]
  - [  -0.0153813780171266, -0.0159106566132601, -0.0155558691254047 ]
- atom:    9
  displacement:
    [  -0.0000000037075032,  0.0070710668522759,  0.0070710687714540 ]
  forces:
  - [   0.0003461147887061,  0.0000233121919112, -0.0003307250533045 ]
  - [  -0.0003770008606793,  0.0000244950408258, -0.0003299894350923 ]
  - [  -0.0000157245905220, -0.0003329627115803, -0.0006913686982059 ]
  - [   0.0000268426179733,  0.0005643734673140,  0.0001520528343526 ]
  - [  -0.0000102791382391, -0.0003412451356020, -0.0006873495905786 ]
  - [   0.0000303463301208,  0.0005049611306009,  0.0002096566594041 ]
  - [  -0.0148072526514015,  0.0154080684524113,  0.0150554872192950 ]
  - [   0.0153996486517438,  0.0158650598947556,  0.0155185818401839 ]
  - [  -0.0008091773102464, -0.0449319973614246, -0.0445769491561954 ]
  - [   0.0000298814865766,  0.0060524758840561,  0.0064040858473806 ]
  - [   0.0031583594702328,  0.0007258914387127,  0.0032804432629792 ]
  - [  -0.0030996047798515,  0.0029253879084244,  0.0010834709472140 ]
  - [   0.0031651990209205,  0.0029287660737779,  0.0010747758932553 ]
  - [  -0.0030936987922568,  0.0007286310054778,  0.0032767736649292 ]
  - [   0.0000325185812479, -0.0001995079971085,  0.0001515304179151 ]
  - [   0.0000238271756746,  0.0000542907174477,  0.0004095233464677 ]
- atom:    9
  displacement:
    [   0.0000000037075032, -0.0070710668522759, -0.0070710687714540 ]
  forces:
  - [  -0.0003737228932374, -0.0000236425998930, -0.0003769252517057 ]
  - [   0.0003429954396680, -0.0000221584173073, -0.0003764460999652 ]
  - [  -0.0000158764446511,  0.0003391986583902, -0.0000190187783396 ]
  - [   0.0000276877410806, -0.0005047571837537, -0.0009173844603844 ]
  - [  -0.0000107952154416,  0.0003316856453728, -0.0000138492922180 ]
  - [   0.0000312716131720, -0.0005633228153567, -0.0008574414753108 ]
  - [   0.0154100206423142, -0.0158730312567998, -0.0162243376968160 ]
  - [  -0.0148032681151774, -0.0154043751354987, -0.0157531514212010 ]
  - [  -0.0008261905282056,  0.0449237532071049,  0.0452744977434908 ]
  - [   0.0000299204222978, -0.0060504961224245, -0.0056981787296513 ]
  - [  -0.0030962811069108, -0.0007270948994681, -0.0025725275478890 ]
  - [   0.0031554841532446, -0.0029285409141833, -0.0003696500996553 ]
  - [  -0.0030890318368341, -0.0029241190619972, -0.0003770558684371 ]
  - [   0.0031607791074888, -0.0007243448407960, -0.0025760963114141 ]
  - [   0.0000328490628442,  0.0002009316860055,  0.0005520622431977 ]
  - [   0.0000241579583478, -0.0000496859493952,  0.0003055030462991 ]
