# Thermal properties / unit cell (natom)

unit:
  temperature:   K
  free_energy:   kJ/mol
  entropy:       J/K/mol
  heat_capacity: J/K/mol

natom: 2    
cutoff_frequency: 0.00000
num_modes: 546750
num_integrated_modes: 546747

zero_point_energy:       3.6837218

thermal_properties:
- temperature:         0.0000000
  free_energy:         3.6837218
  entropy:             0.0000000
  heat_capacity:       0.0000000
  energy:              3.6837218

- temperature:        10.0000000
  free_energy:         3.6818619
  entropy:             0.7893768
  heat_capacity:       2.4259019
  energy:              3.6897557

- temperature:        20.0000000
  free_energy:         3.6568691
  entropy:             4.5547339
  heat_capacity:       9.1108702
  energy:              3.7479637

- temperature:        30.0000000
  free_energy:         3.5875928
  entropy:             9.3713977
  heat_capacity:      14.9962358
  energy:              3.8687347

- temperature:        40.0000000
  free_energy:         3.4684925
  entropy:            14.4812705
  heat_capacity:      20.7755261
  energy:              4.0477433

- temperature:        50.0000000
  free_energy:         3.2976014
  entropy:            19.7004460
  heat_capacity:      26.0764481
  energy:              4.2826237

- temperature:        60.0000000
  free_energy:         3.0746844
  entropy:            24.8612047
  heat_capacity:      30.5155950
  energy:              4.5663567

- temperature:        70.0000000
  free_energy:         2.8009834
  entropy:            29.8421310
  heat_capacity:      34.0588635
  energy:              4.8899326

- temperature:        80.0000000
  free_energy:         2.4786598
  entropy:            34.5790191
  heat_capacity:      36.8369952
  energy:              5.2449813

- temperature:        90.0000000
  free_energy:         2.1102969
  entropy:            39.0484958
  heat_capacity:      39.0110515
  energy:              5.6246615

- temperature:       100.0000000
  free_energy:         1.6985816
  entropy:            43.2508177
  heat_capacity:      40.7223841
  energy:              6.0236634

- temperature:       110.0000000
  free_energy:         1.2461307
  entropy:            47.1982707
  heat_capacity:      42.0821675
  energy:              6.4379405

- temperature:       120.0000000
  free_energy:         0.7554074
  entropy:            50.9084117
  heat_capacity:      43.1742549
  energy:              6.8644168

- temperature:       130.0000000
  free_energy:         0.2286895
  entropy:            54.4004101
  heat_capacity:      44.0610031
  energy:              7.3007429

- temperature:       140.0000000
  free_energy:        -0.3319368
  entropy:            57.6931778
  heat_capacity:      44.7887249
  energy:              7.7451081

- temperature:       150.0000000
  free_energy:        -0.9245693
  entropy:            60.8044850
  heat_capacity:      45.3919917
  energy:              8.1961034

- temperature:       160.0000000
  free_energy:        -1.5474761
  entropy:            63.7506034
  heat_capacity:      45.8968225
  energy:              8.6526205

- temperature:       170.0000000
  free_energy:        -2.1990799
  entropy:            66.5462240
  heat_capacity:      46.3229888
  energy:              9.1137782

- temperature:       180.0000000
  free_energy:        -2.8779429
  entropy:            69.2045107
  heat_capacity:      46.6856676
  energy:              9.5788690

- temperature:       190.0000000
  free_energy:        -3.5827516
  entropy:            71.7372161
  heat_capacity:      46.9966280
  energy:             10.0473194

- temperature:       200.0000000
  free_energy:        -4.3123037
  entropy:            74.1548190
  heat_capacity:      47.2650873
  energy:             10.5186601

- temperature:       210.0000000
  free_energy:        -5.0654956
  entropy:            76.4666646
  heat_capacity:      47.4983330
  energy:             10.9925039

- temperature:       220.0000000
  free_energy:        -5.8413124
  entropy:            78.6810967
  heat_capacity:      47.7021796
  energy:             11.4685289

- temperature:       230.0000000
  free_energy:        -6.6388178
  entropy:            80.8055784
  heat_capacity:      47.8813057
  energy:             11.9464652

- temperature:       240.0000000
  free_energy:        -7.4571465
  entropy:            82.8467992
  heat_capacity:      48.0395069
  energy:             12.4260853

- temperature:       250.0000000
  free_energy:        -8.2954963
  entropy:            84.8107695
  heat_capacity:      48.1798854
  energy:             12.9071960

- temperature:       260.0000000
  free_energy:        -9.1531225
  entropy:            86.7029026
  heat_capacity:      48.3049953
  energy:             13.3896322

- temperature:       270.0000000
  free_energy:       -10.0293313
  entropy:            88.5280867
  heat_capacity:      48.4169533
  energy:             13.8732521

- temperature:       280.0000000
  free_energy:       -10.9234758
  entropy:            90.2907471
  heat_capacity:      48.5175251
  energy:             14.3579334

- temperature:       290.0000000
  free_energy:       -11.8349512
  entropy:            91.9948996
  heat_capacity:      48.6081920
  energy:             14.8435696

- temperature:       300.0000000
  free_energy:       -12.7631910
  entropy:            93.6441979
  heat_capacity:      48.6902038
  energy:             15.3300684

- temperature:       310.0000000
  free_energy:       -13.7076635
  entropy:            95.2419739
  heat_capacity:      48.7646207
  energy:             15.8173484

- temperature:       320.0000000
  free_energy:       -14.6678689
  entropy:            96.7912731
  heat_capacity:      48.8323464
  energy:             16.3053385

- temperature:       330.0000000
  free_energy:       -15.6433367
  entropy:            98.2948858
  heat_capacity:      48.8941550
  energy:             16.7939756

- temperature:       340.0000000
  free_energy:       -16.6336229
  entropy:            99.7553735
  heat_capacity:      48.9507123
  energy:             17.2832041

- temperature:       350.0000000
  free_energy:       -17.6383083
  entropy:           101.1750931
  heat_capacity:      49.0025938
  energy:             17.7729743

- temperature:       360.0000000
  free_energy:       -18.6569961
  entropy:           102.5562172
  heat_capacity:      49.0502984
  energy:             18.2632421

- temperature:       370.0000000
  free_energy:       -19.6893107
  entropy:           103.9007527
  heat_capacity:      49.0942607
  energy:             18.7539678

- temperature:       380.0000000
  free_energy:       -20.7348954
  entropy:           105.2105566
  heat_capacity:      49.1348603
  energy:             19.2451161

- temperature:       390.0000000
  free_energy:       -21.7934118
  entropy:           106.4873505
  heat_capacity:      49.1724303
  energy:             19.7366549

- temperature:       400.0000000
  free_energy:       -22.8645378
  entropy:           107.7327333
  heat_capacity:      49.2072634
  energy:             20.2285555

- temperature:       410.0000000
  free_energy:       -23.9479667
  entropy:           108.9481918
  heat_capacity:      49.2396183
  energy:             20.7207919

- temperature:       420.0000000
  free_energy:       -25.0434065
  entropy:           110.1351116
  heat_capacity:      49.2697237
  energy:             21.2133404

- temperature:       430.0000000
  free_energy:       -26.1505781
  entropy:           111.2947854
  heat_capacity:      49.2977827
  energy:             21.7061796

- temperature:       440.0000000
  free_energy:       -27.2692154
  entropy:           112.4284210
  heat_capacity:      49.3239760
  energy:             22.1992899

- temperature:       450.0000000
  free_energy:       -28.3990635
  entropy:           113.5371488
  heat_capacity:      49.3484650
  energy:             22.6926534

- temperature:       460.0000000
  free_energy:       -29.5398789
  entropy:           114.6220279
  heat_capacity:      49.3713938
  energy:             23.1862540

- temperature:       470.0000000
  free_energy:       -30.6914279
  entropy:           115.6840520
  heat_capacity:      49.3928919
  energy:             23.6800765

- temperature:       480.0000000
  free_energy:       -31.8534869
  entropy:           116.7241547
  heat_capacity:      49.4130755
  energy:             24.1741074

- temperature:       490.0000000
  free_energy:       -33.0258409
  entropy:           117.7432141
  heat_capacity:      49.4320494
  energy:             24.6683340

- temperature:       500.0000000
  free_energy:       -34.2082838
  entropy:           118.7420569
  heat_capacity:      49.4499082
  energy:             25.1627447

- temperature:       510.0000000
  free_energy:       -35.4006172
  entropy:           119.7214627
  heat_capacity:      49.4667372
  energy:             25.6573287

- temperature:       520.0000000
  free_energy:       -36.6026507
  entropy:           120.6821672
  heat_capacity:      49.4826140
  energy:             26.1520763

- temperature:       530.0000000
  free_energy:       -37.8142006
  entropy:           121.6248654
  heat_capacity:      49.4976089
  energy:             26.6469781

- temperature:       540.0000000
  free_energy:       -39.0350902
  entropy:           122.5502146
  heat_capacity:      49.5117860
  energy:             27.1420257

- temperature:       550.0000000
  free_energy:       -40.2651491
  entropy:           123.4588370
  heat_capacity:      49.5252034
  energy:             27.6372113

- temperature:       560.0000000
  free_energy:       -41.5042131
  entropy:           124.3513224
  heat_capacity:      49.5379145
  energy:             28.1325274

- temperature:       570.0000000
  free_energy:       -42.7521236
  entropy:           125.2282298
  heat_capacity:      49.5499677
  energy:             28.6279674

- temperature:       580.0000000
  free_energy:       -44.0087276
  entropy:           126.0900902
  heat_capacity:      49.5614078
  energy:             29.1235247

- temperature:       590.0000000
  free_energy:       -45.2738770
  entropy:           126.9374077
  heat_capacity:      49.5722754
  energy:             29.6191936

- temperature:       600.0000000
  free_energy:       -46.5474288
  entropy:           127.7706622
  heat_capacity:      49.5826081
  energy:             30.1149685

- temperature:       610.0000000
  free_energy:       -47.8292448
  entropy:           128.5903098
  heat_capacity:      49.5924403
  energy:             30.6108441

- temperature:       620.0000000
  free_energy:       -49.1191911
  entropy:           129.3967852
  heat_capacity:      49.6018039
  energy:             31.1068157

- temperature:       630.0000000
  free_energy:       -50.4171380
  entropy:           130.1905028
  heat_capacity:      49.6107281
  energy:             31.6028787

- temperature:       640.0000000
  free_energy:       -51.7229600
  entropy:           130.9718576
  heat_capacity:      49.6192398
  energy:             32.0990289

- temperature:       650.0000000
  free_energy:       -53.0365352
  entropy:           131.7412269
  heat_capacity:      49.6273642
  energy:             32.5952622

- temperature:       660.0000000
  free_energy:       -54.3577458
  entropy:           132.4989708
  heat_capacity:      49.6351243
  energy:             33.0915750

- temperature:       670.0000000
  free_energy:       -55.6864770
  entropy:           133.2454338
  heat_capacity:      49.6425415
  energy:             33.5879636

- temperature:       680.0000000
  free_energy:       -57.0226179
  entropy:           133.9809451
  heat_capacity:      49.6496358
  energy:             34.0844247

- temperature:       690.0000000
  free_energy:       -58.3660605
  entropy:           134.7058199
  heat_capacity:      49.6564255
  energy:             34.5809553

- temperature:       700.0000000
  free_energy:       -59.7166999
  entropy:           135.4203602
  heat_capacity:      49.6629279
  energy:             35.0775523

- temperature:       710.0000000
  free_energy:       -61.0744342
  entropy:           136.1248551
  heat_capacity:      49.6691588
  energy:             35.5742129

- temperature:       720.0000000
  free_energy:       -62.4391644
  entropy:           136.8195820
  heat_capacity:      49.6751333
  energy:             36.0709346

- temperature:       730.0000000
  free_energy:       -63.8107942
  entropy:           137.5048068
  heat_capacity:      49.6808651
  energy:             36.5677148

- temperature:       740.0000000
  free_energy:       -65.1892297
  entropy:           138.1807850
  heat_capacity:      49.6863673
  energy:             37.0645511

- temperature:       750.0000000
  free_energy:       -66.5743799
  entropy:           138.8477617
  heat_capacity:      49.6916518
  energy:             37.5614414

- temperature:       760.0000000
  free_energy:       -67.9661558
  entropy:           139.5059727
  heat_capacity:      49.6967300
  energy:             38.0583835

- temperature:       770.0000000
  free_energy:       -69.3644709
  entropy:           140.1556444
  heat_capacity:      49.7016126
  energy:             38.5553753

- temperature:       780.0000000
  free_energy:       -70.7692409
  entropy:           140.7969949
  heat_capacity:      49.7063094
  energy:             39.0524151

- temperature:       790.0000000
  free_energy:       -72.1803837
  entropy:           141.4302338
  heat_capacity:      49.7108296
  energy:             39.5495009

- temperature:       800.0000000
  free_energy:       -73.5978192
  entropy:           142.0555630
  heat_capacity:      49.7151822
  energy:             40.0466311

- temperature:       810.0000000
  free_energy:       -75.0214693
  entropy:           142.6731769
  heat_capacity:      49.7193751
  energy:             40.5438041

- temperature:       820.0000000
  free_energy:       -76.4512577
  entropy:           143.2832632
  heat_capacity:      49.7234162
  energy:             41.0410181

- temperature:       830.0000000
  free_energy:       -77.8871100
  entropy:           143.8860023
  heat_capacity:      49.7273127
  energy:             41.5382719

- temperature:       840.0000000
  free_energy:       -79.3289538
  entropy:           144.4815687
  heat_capacity:      49.7310713
  energy:             42.0355639

- temperature:       850.0000000
  free_energy:       -80.7767181
  entropy:           145.0701305
  heat_capacity:      49.7346985
  energy:             42.5328929

- temperature:       860.0000000
  free_energy:       -82.2303336
  entropy:           145.6518501
  heat_capacity:      49.7382004
  energy:             43.0302575

- temperature:       870.0000000
  free_energy:       -83.6897328
  entropy:           146.2268842
  heat_capacity:      49.7415827
  energy:             43.5276565

- temperature:       880.0000000
  free_energy:       -85.1548495
  entropy:           146.7953844
  heat_capacity:      49.7448507
  energy:             44.0250888

- temperature:       890.0000000
  free_energy:       -86.6256192
  entropy:           147.3574970
  heat_capacity:      49.7480095
  energy:             44.5225531

- temperature:       900.0000000
  free_energy:       -88.1019786
  entropy:           147.9133636
  heat_capacity:      49.7510639
  energy:             45.0200486

- temperature:       910.0000000
  free_energy:       -89.5838661
  entropy:           148.4631211
  heat_capacity:      49.7540186
  energy:             45.5175741

- temperature:       920.0000000
  free_energy:       -91.0712211
  entropy:           149.0069019
  heat_capacity:      49.7568776
  energy:             46.0151287

- temperature:       930.0000000
  free_energy:       -92.5639846
  entropy:           149.5448344
  heat_capacity:      49.7596453
  energy:             46.5127113

- temperature:       940.0000000
  free_energy:       -94.0620987
  entropy:           150.0770426
  heat_capacity:      49.7623253
  energy:             47.0103213

- temperature:       950.0000000
  free_energy:       -95.5655068
  entropy:           150.6036467
  heat_capacity:      49.7649214
  energy:             47.5079576

- temperature:       960.0000000
  free_energy:       -97.0741534
  entropy:           151.1247633
  heat_capacity:      49.7674370
  energy:             48.0056194

- temperature:       970.0000000
  free_energy:       -98.5879842
  entropy:           151.6405054
  heat_capacity:      49.7698755
  energy:             48.5033061

- temperature:       980.0000000
  free_energy:      -100.1069459
  entropy:           152.1509823
  heat_capacity:      49.7722399
  energy:             49.0010167

- temperature:       990.0000000
  free_energy:      -101.6309866
  entropy:           152.6563002
  heat_capacity:      49.7745331
  energy:             49.4987506

- temperature:      1000.0000000
  free_energy:      -103.1600551
  entropy:           153.1565622
  heat_capacity:      49.7767581
  energy:             49.9965071
