    2    2  100    1
  0.3408459E+02  0.4585296E-09  0.4585300E-09  0.4585305E-09  0.5000000E-15
  1.000000000000000E-004
  CAR 
 unknown system                          
     18     18     28
 
  0.0000000E+00  0.0000000E+00  0.0000000E+00  0.1562500E-01
    1       -9.008817   1.000000
    2       -6.119385   1.000000
    3       -6.119376   1.000000
    4       -6.119365   1.000000
    5       -5.866369   1.000000
    6       -5.866356   1.000000
    7        2.127562   1.000777
    8        2.127624   1.000709
    9        2.127682   1.000647
   10        2.737872  -0.003886
   11        6.659886  -0.000000
   12        6.659959  -0.000000
   13        6.660032  -0.000000
   14        9.399360   0.000000
   15       11.433908   0.000000
   16       11.433928   0.000000
   17       12.095825   0.000000
   18       12.095862   0.000000
   19       12.095886   0.000000
   20       14.402047   0.000000
   21       21.774351   0.000000
   22       21.774550   0.000000
   23       21.774726   0.000000
   24       22.710694   0.000000
   25       22.710750   0.000000
   26       22.710824   0.000000
   27       23.742897   0.000000
   28       23.743001   0.000000
 
  0.2500000E+00 -0.3786576E-16 -0.3299639E-18  0.6250000E-01
    1       -8.810659   1.000000
    2       -6.084629   1.000000
    3       -6.084620   1.000000
    4       -5.926289   1.000000
    5       -5.866764   1.000000
    6       -5.866752   1.000000
    7       -0.615949   1.000000
    8        1.702362   1.000109
    9        1.702453   1.000110
   10        4.000451  -0.000000
   11        7.205385  -0.000000
   12        7.205408  -0.000000
   13        7.370882  -0.000000
   14       10.261109   0.000000
   15       10.492594   0.000000
   16       10.492727   0.000000
   17       12.830530   0.000000
   18       15.157108   0.000000
   19       15.157165   0.000000
   20       17.478328   0.000000
   21       17.545258   0.000000
   22       17.545507   0.000000
   23       17.962415   0.000000
   24       22.122682   0.000000
   25       23.341183   0.000000
   26       23.341399   0.000000
   27       23.935943   0.000000
   28       23.936068   0.000000
 
 -0.1335712E-16  0.3013991E-16  0.2500000E+00  0.6250000E-01
    1       -8.810654   1.000000
    2       -6.084633   1.000000
    3       -6.084619   1.000000
    4       -5.926281   1.000000
    5       -5.866764   1.000000
    6       -5.866752   1.000000
    7       -0.615892   1.000000
    8        1.702316   1.000109
    9        1.702415   1.000110
   10        4.000384  -0.000000
   11        7.205340  -0.000000
   12        7.205361  -0.000000
   13        7.370907  -0.000000
   14       10.261068   0.000000
   15       10.492548   0.000000
   16       10.492689   0.000000
   17       12.830712   0.000000
   18       15.157209   0.000000
   19       15.157228   0.000000
   20       17.478452   0.000000
   21       17.545408   0.000000
   22       17.545637   0.000000
   23       17.962596   0.000000
   24       22.122472   0.000000
   25       23.340895   0.000000
   26       23.341136   0.000000
   27       23.935742   0.000000
   28       23.935883   0.000000
 
  0.5000000E+00 -0.7573152E-16 -0.6599278E-18  0.3125000E-01
    1       -8.614684   1.000000
    2       -6.057958   1.000000
    3       -6.057954   1.000000
    4       -5.857574   1.000000
    5       -5.857560   1.000000
    6       -5.525007   1.000000
    7       -2.288718   1.000000
    8        1.359544   1.000000
    9        1.359639   1.000000
   10        3.831389  -0.000000
   11        7.242085  -0.000000
   12        7.242150  -0.000000
   13        9.041260   0.000000
   14       10.600898   0.000000
   15       12.341988   0.000000
   16       12.342258   0.000000
   17       13.327314   0.000000
   18       13.666592   0.000000
   19       13.666774   0.000000
   20       17.941707   0.000000
   21       19.447079   0.000000
   22       19.447213   0.000000
   23       20.125923   0.000000
   24       20.447252   0.000000
   25       20.447333   0.000000
   26       22.566340   0.000000
   27       23.228794   0.000000
   28       23.669537   0.000000
 
 -0.2671424E-16  0.6027982E-16  0.5000000E+00  0.3125000E-01
    1       -8.614675   1.000000
    2       -6.057962   1.000000
    3       -6.057954   1.000000
    4       -5.857571   1.000000
    5       -5.857560   1.000000
    6       -5.524982   1.000000
    7       -2.288684   1.000000
    8        1.359490   1.000000
    9        1.359596   1.000000
   10        3.831276  -0.000000
   11        7.242016  -0.000000
   12        7.242065  -0.000000
   13        9.041223   0.000000
   14       10.600962   0.000000
   15       12.342044   0.000000
   16       12.342302   0.000000
   17       13.327335   0.000000
   18       13.666638   0.000000
   19       13.666809   0.000000
   20       17.942069   0.000000
   21       19.447254   0.000000
   22       19.447342   0.000000
   23       20.126211   0.000000
   24       20.447465   0.000000
   25       20.447504   0.000000
   26       22.566156   0.000000
   27       23.229079   0.000000
   28       23.669884   0.000000
 
  0.2500000E+00  0.2500000E+00  0.6493768E-17  0.3125000E-01
    1       -8.746407   1.000000
    2       -6.044232   1.000000
    3       -6.044218   1.000000
    4       -5.964572   1.000000
    5       -5.851388   1.000000
    6       -5.838752   1.000000
    7       -0.565522   1.000000
    8        1.048674   1.000000
    9        1.048826   1.000000
   10        4.982888  -0.000000
   11        5.347805  -0.000000
   12        8.510157   0.000000
   13        8.510210   0.000000
   14        8.815992   0.000000
   15       11.967079   0.000000
   16       12.586142   0.000000
   17       13.772026   0.000000
   18       13.772140   0.000000
   19       14.183935   0.000000
   20       17.255936   0.000000
   21       17.255967   0.000000
   22       18.147427   0.000000
   23       18.483540   0.000000
   24       19.582553   0.000000
   25       23.080326   0.000000
   26       23.125564   0.000000
   27       23.126384   0.000000
   28       23.935714   0.000000
 
 -0.2944987E-16  0.2500000E+00  0.2500000E+00  0.6250000E-01
    1       -8.746407   1.000000
    2       -6.044227   1.000000
    3       -6.044217   1.000000
    4       -5.964571   1.000000
    5       -5.851394   1.000000
    6       -5.838753   1.000000
    7       -0.565528   1.000000
    8        1.048744   1.000000
    9        1.048765   1.000000
   10        4.982897  -0.000000
   11        5.347804  -0.000000
   12        8.510183   0.000000
   13        8.510186   0.000000
   14        8.815983   0.000000
   15       11.967092   0.000000
   16       12.586131   0.000000
   17       13.772075   0.000000
   18       13.772094   0.000000
   19       14.183943   0.000000
   20       17.255942   0.000000
   21       17.255950   0.000000
   22       18.147424   0.000000
   23       18.483531   0.000000
   24       19.582497   0.000000
   25       23.080339   0.000000
   26       23.125983   0.000000
   27       23.126034   0.000000
   28       23.935696   0.000000
 
  0.5000000E+00  0.2500000E+00  0.7220251E-16  0.6250000E-01
    1       -8.555513   1.000000
    2       -6.025753   1.000000
    3       -6.007209   1.000000
    4       -5.906246   1.000000
    5       -5.850655   1.000000
    6       -5.472021   1.000000
    7       -1.949004   1.000000
    8        0.054516   1.000000
    9        0.761065   1.000000
   10        4.999202  -0.000000
   11        6.536732  -0.000000
   12        8.187479   0.000000
   13        8.786369   0.000000
   14       10.990665   0.000000
   15       12.563020   0.000000
   16       13.002824   0.000000
   17       13.426842   0.000000
   18       14.139034   0.000000
   19       16.853546   0.000000
   20       17.151555   0.000000
   21       17.617072   0.000000
   22       18.570060   0.000000
   23       18.654842   0.000000
   24       19.430937   0.000000
   25       20.000831   0.000000
   26       22.022850   0.000000
   27       22.485550   0.000000
   28       23.888625   0.000000
 
 -0.1656975E-16  0.5000000E+00  0.2500000E+00  0.1250000E+00
    1       -8.555513   1.000000
    2       -6.025751   1.000000
    3       -6.007203   1.000000
    4       -5.906238   1.000000
    5       -5.850663   1.000000
    6       -5.472026   1.000000
    7       -1.949023   1.000000
    8        0.054567   1.000000
    9        0.761006   1.000000
   10        4.999154  -0.000000
   11        6.536855  -0.000000
   12        8.187583   0.000000
   13        8.786419   0.000000
   14       10.990537   0.000000
   15       12.562871   0.000000
   16       13.002954   0.000000
   17       13.426691   0.000000
   18       14.138928   0.000000
   19       16.853452   0.000000
   20       17.151510   0.000000
   21       17.617337   0.000000
   22       18.569973   0.000000
   23       18.654956   0.000000
   24       19.430872   0.000000
   25       20.001038   0.000000
   26       22.022959   0.000000
   27       22.485546   0.000000
   28       23.888720   0.000000
 
  0.2500000E+00  0.3629185E-16  0.5000000E+00  0.1250000E+00
    1       -8.555509   1.000000
    2       -6.025754   1.000000
    3       -6.007214   1.000000
    4       -5.906247   1.000000
    5       -5.850650   1.000000
    6       -5.472005   1.000000
    7       -1.948986   1.000000
    8        0.054545   1.000000
    9        0.760985   1.000000
   10        4.999061  -0.000000
   11        6.536823  -0.000000
   12        8.187446   0.000000
   13        8.786330   0.000000
   14       10.990704   0.000000
   15       12.563035   0.000000
   16       13.002774   0.000000
   17       13.426863   0.000000
   18       14.139017   0.000000
   19       16.853696   0.000000
   20       17.151620   0.000000
   21       17.617148   0.000000
   22       18.570252   0.000000
   23       18.654792   0.000000
   24       19.431172   0.000000
   25       20.000855   0.000000
   26       22.022905   0.000000
   27       22.485409   0.000000
   28       23.888889   0.000000
 
  0.2500000E+00  0.2500000E+00 -0.2500000E+00  0.6250000E-01
    1       -8.555509   1.000000
    2       -6.025753   1.000000
    3       -6.007214   1.000000
    4       -5.906239   1.000000
    5       -5.850658   1.000000
    6       -5.472008   1.000000
    7       -1.948979   1.000000
    8        0.054597   1.000000
    9        0.760908   1.000000
   10        4.998969  -0.000000
   11        6.536953  -0.000000
   12        8.187545   0.000000
   13        8.786373   0.000000
   14       10.990590   0.000000
   15       12.562882   0.000000
   16       13.002907   0.000000
   17       13.426732   0.000000
   18       14.138932   0.000000
   19       16.853618   0.000000
   20       17.151577   0.000000
   21       17.617413   0.000000
   22       18.570184   0.000000
   23       18.654894   0.000000
   24       19.431128   0.000000
   25       20.001053   0.000000
   26       22.023032   0.000000
   27       22.485434   0.000000
   28       23.889048   0.000000
 
 -0.2500000E+00  0.2500000E+00 -0.3257232E-16  0.3125000E-01
    1       -8.617551   1.000000
    2       -6.041655   1.000000
    3       -6.040204   1.000000
    4       -5.874195   1.000000
    5       -5.873467   1.000000
    6       -5.599459   1.000000
    7       -1.589869   1.000000
    8       -0.012113   1.000000
    9        1.327902   1.000000
   10        5.166337  -0.000000
   11        7.237702  -0.000000
   12        7.653832  -0.000000
   13        7.898487   0.000000
   14       10.076166   0.000000
   15       11.516241   0.000000
   16       13.092956   0.000000
   17       13.409198   0.000000
   18       14.014995   0.000000
   19       17.064109   0.000000
   20       17.260014   0.000000
   21       17.578274   0.000000
   22       18.425296   0.000000
   23       19.270353   0.000000
   24       19.993576   0.000000
   25       21.440861   0.000000
   26       21.804609   0.000000
   27       22.536333   0.000000
   28       23.422675   0.000000
 
 -0.2562859E-16 -0.2500000E+00  0.2500000E+00  0.1250000E+00
    1       -8.617546   1.000000
    2       -6.041652   1.000000
    3       -6.040209   1.000000
    4       -5.874202   1.000000
    5       -5.873461   1.000000
    6       -5.599445   1.000000
    7       -1.589860   1.000000
    8       -0.012099   1.000000
    9        1.327854   1.000000
   10        5.166270  -0.000000
   11        7.237675  -0.000000
   12        7.653750  -0.000000
   13        7.898460   0.000000
   14       10.076073   0.000000
   15       11.516421   0.000000
   16       13.092976   0.000000
   17       13.409346   0.000000
   18       14.015043   0.000000
   19       17.064344   0.000000
   20       17.259956   0.000000
   21       17.578237   0.000000
   22       18.425265   0.000000
   23       19.270451   0.000000
   24       19.993500   0.000000
   25       21.441039   0.000000
   26       21.804713   0.000000
   27       22.536414   0.000000
   28       23.422776   0.000000
 
  0.2500000E+00  0.2500000E+00  0.5000000E+00  0.3125000E-01
    1       -8.617543   1.000000
    2       -6.041664   1.000000
    3       -6.040211   1.000000
    4       -5.874198   1.000000
    5       -5.873463   1.000000
    6       -5.599430   1.000000
    7       -1.589799   1.000000
    8       -0.012075   1.000000
    9        1.327769   1.000000
   10        5.166133  -0.000000
   11        7.237638  -0.000000
   12        7.653683  -0.000000
   13        7.898458   0.000000
   14       10.075957   0.000000
   15       11.516599   0.000000
   16       13.093034   0.000000
   17       13.409506   0.000000
   18       14.015136   0.000000
   19       17.064570   0.000000
   20       17.259944   0.000000
   21       17.578233   0.000000
   22       18.425256   0.000000
   23       19.270515   0.000000
   24       19.993449   0.000000
   25       21.441158   0.000000
   26       21.804826   0.000000
   27       22.536512   0.000000
   28       23.422841   0.000000
 
  0.5000000E+00  0.5000000E+00  0.1298754E-16  0.1562500E-01
    1       -8.494591   1.000000
    2       -5.968399   1.000000
    3       -5.960207   1.000000
    4       -5.960196   1.000000
    5       -5.836335   1.000000
    6       -5.390816   1.000000
    7       -2.176913   1.000000
    8        0.278191   1.000000
    9        0.278358   1.000000
   10        4.627060  -0.000000
   11        4.713440  -0.000000
   12       10.785562   0.000000
   13       11.119356   0.000000
   14       11.119438   0.000000
   15       12.910675   0.000000
   16       13.596147   0.000000
   17       13.596241   0.000000
   18       13.995534   0.000000
   19       15.779559   0.000000
   20       17.475222   0.000000
   21       17.720552   0.000000
   22       17.720732   0.000000
   23       18.107087   0.000000
   24       18.188716   0.000000
   25       19.274958   0.000000
   26       19.275144   0.000000
   27       20.567905   0.000000
   28       24.303170   0.000000
 
 -0.5889973E-16  0.5000000E+00  0.5000000E+00  0.3125000E-01
    1       -8.494592   1.000000
    2       -5.968393   1.000000
    3       -5.960204   1.000000
    4       -5.960193   1.000000
    5       -5.836341   1.000000
    6       -5.390823   1.000000
    7       -2.176920   1.000000
    8        0.278272   1.000000
    9        0.278290   1.000000
   10        4.627067  -0.000000
   11        4.713454  -0.000000
   12       10.785551   0.000000
   13       11.119389   0.000000
   14       11.119404   0.000000
   15       12.910680   0.000000
   16       13.596189   0.000000
   17       13.596209   0.000000
   18       13.995538   0.000000
   19       15.779570   0.000000
   20       17.475200   0.000000
   21       17.720612   0.000000
   22       17.720627   0.000000
   23       18.107082   0.000000
   24       18.188687   0.000000
   25       19.275023   0.000000
   26       19.275032   0.000000
   27       20.567876   0.000000
   28       24.303187   0.000000
 
 -0.2500000E+00  0.5000000E+00  0.2500000E+00  0.6250000E-01
    1       -8.496221   1.000000
    2       -6.000278   1.000000
    3       -5.994798   1.000000
    4       -5.895097   1.000000
    5       -5.865980   1.000000
    6       -5.310585   1.000000
    7       -2.054434   1.000000
    8       -0.185696   1.000000
    9       -0.059291   1.000000
   10        6.294144  -0.000000
   11        6.707084  -0.000000
   12        7.571872  -0.000000
   13        8.316047   0.000000
   14       11.625872   0.000000
   15       13.144590   0.000000
   16       13.273778   0.000000
   17       13.537041   0.000000
   18       15.625823   0.000000
   19       16.809742   0.000000
   20       17.140644   0.000000
   21       17.224039   0.000000
   22       17.837689   0.000000
   23       18.721990   0.000000
   24       19.053952   0.000000
   25       21.119502   0.000000
   26       21.897263   0.000000
   27       22.426172   0.000000
   28       22.447107   0.000000
 
  0.2500000E+00 -0.2500000E+00  0.5000000E+00  0.3125000E-01
    1       -8.496221   1.000000
    2       -6.000275   1.000000
    3       -5.994803   1.000000
    4       -5.895102   1.000000
    5       -5.865975   1.000000
    6       -5.310583   1.000000
    7       -2.054435   1.000000
    8       -0.185697   1.000000
    9       -0.059290   1.000000
   10        6.294145  -0.000000
   11        6.707085  -0.000000
   12        7.571874  -0.000000
   13        8.316049   0.000000
   14       11.625870   0.000000
   15       13.144587   0.000000
   16       13.273778   0.000000
   17       13.537039   0.000000
   18       15.625819   0.000000
   19       16.809738   0.000000
   20       17.140640   0.000000
   21       17.224036   0.000000
   22       17.837693   0.000000
   23       18.721991   0.000000
   24       19.053954   0.000000
   25       21.119506   0.000000
   26       21.897267   0.000000
   27       22.426174   0.000000
   28       22.447107   0.000000
