       N       E                     dE             d eps       ncg     rms          rms(c)
DAV:   1     0.549692960071E+02    0.54969E+02   -0.97235E+03  1008   0.625E+02
DAV:   2    -0.508101822297E+01   -0.60050E+02   -0.60005E+02  1288   0.945E+01
DAV:   3    -0.569239917823E+01   -0.61138E+00   -0.61137E+00  1372   0.142E+01
DAV:   4    -0.569317926960E+01   -0.78009E-03   -0.78009E-03  1708   0.395E-01
DAV:   5    -0.569317967293E+01   -0.40334E-06   -0.40329E-06  1316   0.550E-03    0.535E+00
DAV:   6    -0.544558437453E+01    0.24760E+00   -0.92268E-01  1428   0.481E+00    0.417E+00
DAV:   7    -0.542262740653E+01    0.22957E-01   -0.85448E-02  1456   0.979E-01    0.192E+00
DAV:   8    -0.542138757725E+01    0.12398E-02   -0.84466E-03  1288   0.524E-01    0.159E-01
DAV:   9    -0.542140122605E+01   -0.13649E-04   -0.71226E-04  1400   0.867E-02    0.481E-02
DAV:  10    -0.542145447199E+01   -0.53246E-04   -0.52987E-05  1344   0.246E-02    0.270E-02
DAV:  11    -0.542146786304E+01   -0.13391E-04   -0.13233E-05  1344   0.922E-03    0.976E-03
DAV:  12    -0.542147013480E+01   -0.22718E-05   -0.23385E-06  1344   0.426E-03    0.254E-03
DAV:  13    -0.542147034820E+01   -0.21340E-06   -0.39451E-07  1456   0.173E-03    0.650E-04
DAV:  14    -0.542147034889E+01   -0.68871E-09   -0.16954E-09  1512   0.189E-04
   1 F= -.54214703E+01 E0= -.54216727E+01  d E =-.542147E+01
       N       E                     dE             d eps       ncg     rms          rms(c)
DAV:   1    -0.545593960627E+01   -0.34469E-01   -0.77313E-01  1008   0.511E+00    0.135E+00
DAV:   2    -0.542599870018E+01    0.29941E-01   -0.96079E-02  1176   0.193E+00    0.432E-01
DAV:   3    -0.542293076102E+01    0.30679E-02   -0.70464E-03  1176   0.415E-01    0.350E-01
DAV:   4    -0.542243188094E+01    0.49888E-03   -0.11900E-03  1176   0.857E-02    0.862E-02
DAV:   5    -0.542241956624E+01    0.12315E-04   -0.69868E-05  1120   0.351E-02    0.161E-02
DAV:   6    -0.542242094231E+01   -0.13761E-05   -0.31203E-06  1568   0.106E-02    0.582E-03
DAV:   7    -0.542242142998E+01   -0.48767E-06   -0.93375E-07  1232   0.395E-03    0.836E-04
DAV:   8    -0.542242147364E+01   -0.43666E-07   -0.75632E-08  1736   0.172E-03    0.767E-04
DAV:   9    -0.542242149574E+01   -0.22094E-07   -0.13957E-08  1120   0.321E-04    0.196E-04
DAV:  10    -0.542242148865E+01    0.70909E-08   -0.62497E-10  1624   0.952E-05
   2 F= -.54224215E+01 E0= -.54226430E+01  d E =-.951140E-03
       N       E                     dE             d eps       ncg     rms          rms(c)
DAV:   1    -0.542427096725E+01   -0.18495E-02   -0.40201E-02  1008   0.116E+00    0.299E-01
DAV:   2    -0.542268782920E+01    0.15831E-02   -0.52795E-03  1232   0.450E-01    0.940E-02
DAV:   3    -0.542253415739E+01    0.15367E-03   -0.35668E-04  1064   0.913E-02    0.748E-02
DAV:   4    -0.542251400551E+01    0.20152E-04   -0.60604E-05  1344   0.194E-02    0.197E-02
DAV:   5    -0.542251443304E+01   -0.42752E-06   -0.29873E-06  1008   0.696E-03    0.436E-03
DAV:   6    -0.542251461382E+01   -0.18079E-06   -0.17911E-07  1624   0.208E-03    0.123E-03
DAV:   7    -0.542251457542E+01    0.38404E-07   -0.28720E-08  1176   0.494E-04    0.321E-04
DAV:   8    -0.542251458763E+01   -0.12206E-07   -0.16978E-09  1428   0.191E-04    0.171E-04
DAV:   9    -0.542251459362E+01   -0.59947E-08   -0.76897E-10  1176   0.736E-05
   3 F= -.54225146E+01 E0= -.54227308E+01  d E =-.931050E-04
