 vasp.6.1.2 22Jul20 (build Dec 07 2020 09:43:49) complex                        
  
 executed on             LinuxIFC date 2023.08.19  19:46:40
 running   28 mpi-ranks, with    1 threads/rank
 distrk:  each k-point on   28 cores,    1 groups
 distr:  one band on NCORE=   1 cores,   28 groups


--------------------------------------------------------------------------------------------------------


 INCAR:
 POTCAR:    PAW_PBE Cd 06Sep2000                  
 POTCAR:    PAW_PBE Te 08Apr2002                  
 POTCAR:    PAW_PBE Cd 06Sep2000                  
   VRHFIN =Cd : s2 d10                                                                              
   LEXCH  = PE                                                                                      
   EATOM  =  1293.1815 eV,   95.0462 Ry                                                             
                                                                                                    
   TITEL  = PAW_PBE Cd 06Sep2000                                                                    
   LULTRA =        F    use ultrasoft PP ?                                                          
   IUNSCR =        1    unscreen: 0-lin 1-nonlin 2-no                                               
   RPACOR =    2.000    partial core radius                                                         
   POMASS =  112.411; ZVAL   =   12.000    mass and valenz                                          
   RCORE  =    2.300    outmost cutoff radius                                                       
   RWIGS  =    2.980; RWIGS  =    1.577    wigner-seitz radius (au A)                               
   ENMAX  =  274.336; ENMIN  =  205.752 eV                                                          
   RCLOC  =    2.054    cutoff for local pot                                                        
   LCOR   =        T    correct aug charges                                                         
   LPAW   =        T    paw PP                                                                      
   EAUG   =  456.106                                                                                
   DEXC   =    0.000                                                                                
   RMAX   =    2.358    core radius for proj-oper                                                   
   RAUG   =    1.300    factor for augmentation sphere                                              
   RDEP   =    2.450    radius for radial grids                                                     
   RDEPT  =    1.955    core radius for aug-charge                                                  
                                                                                                    
   Atomic configuration                                                                             
   12 entries                                                                                       
     n  l   j            E        occ.                                                              
     1  0  0.50    -26519.7817   2.0000                                                             
     2  0  0.50     -3936.9612   2.0000                                                             
     2  1  1.50     -3532.2230   6.0000                                                             
     3  0  0.50      -733.7908   2.0000                                                             
     3  1  1.50      -601.0792   6.0000                                                             
     3  2  2.50      -393.5307  10.0000                                                             
     4  0  0.50      -105.8977   2.0000                                                             
     4  1  1.50       -66.9488   6.0000                                                             
     4  2  2.50       -11.7331  10.0000                                                             
     5  0  0.50        -5.6592   2.0000                                                             
     5  1  0.50        -1.3606   0.0000                                                             
     4  3  2.50        -1.3606   0.0000                                                             
   Description                                                                                      
     l       E           TYP  RCUT    TYP  RCUT                                                     
     2    -11.7331479     23  2.300                                                                 
     2    -13.0937305     23  2.300                                                                 
     0     -5.6591502     23  2.300                                                                 
     0     -1.5561433     23  2.300                                                                 
     1     -2.7211652     23  2.300                                                                 
     1      8.3548275     23  2.300                                                                 
  local pseudopotential read in
  partial core-charges read in
  partial kinetic energy density read in
  atomic valenz-charges read in
  non local Contribution for L=           2  read in
    real space projection operators read in
  non local Contribution for L=           2  read in
    real space projection operators read in
  non local Contribution for L=           0  read in
    real space projection operators read in
  non local Contribution for L=           0  read in
    real space projection operators read in
  non local Contribution for L=           1  read in
    real space projection operators read in
  non local Contribution for L=           1  read in
    real space projection operators read in
    PAW grid and wavefunctions read in
 
   number of l-projection  operators is LMAX  =           6
   number of lm-projection operators is LMMAX =          18
 
 POTCAR:    PAW_PBE Te 08Apr2002                  
   VRHFIN =Te: s2p4                                                                                 
   LEXCH  = PE                                                                                      
   EATOM  =   223.2721 eV,   16.4100 Ry                                                             
                                                                                                    
   TITEL  = PAW_PBE Te 08Apr2002                                                                    
   LULTRA =        F    use ultrasoft PP ?                                                          
   IUNSCR =        1    unscreen: 0-lin 1-nonlin 2-no                                               
   RPACOR =    2.200    partial core radius                                                         
   POMASS =  127.600; ZVAL   =    6.000    mass and valenz                                          
   RCORE  =    2.300    outmost cutoff radius                                                       
   RWIGS  =    2.900; RWIGS  =    1.535    wigner-seitz radius (au A)                               
   ENMAX  =  174.982; ENMIN  =  131.236 eV                                                          
   ICORE  =        3    local potential                                                             
   LCOR   =        T    correct aug charges                                                         
   LPAW   =        T    paw PP                                                                      
   EAUG   =  368.792                                                                                
   DEXC   =    0.000                                                                                
   RMAX   =    2.345    core radius for proj-oper                                                   
   RAUG   =    1.300    factor for augmentation sphere                                              
   RDEP   =    2.397    radius for radial grids                                                     
   RDEPT  =    2.174    core radius for aug-charge                                                  
                                                                                                    
   Atomic configuration                                                                             
   13 entries                                                                                       
     n  l   j            E        occ.                                                              
     1  0  0.50    -31621.2075   2.0000                                                             
     2  0  0.50     -4848.7941   2.0000                                                             
     2  1  1.50     -4352.1960   6.0000                                                             
     3  0  0.50      -964.9612   2.0000                                                             
     3  1  1.50      -803.6179   6.0000                                                             
     3  2  2.50      -559.8710  10.0000                                                             
     4  0  0.50      -164.3522   2.0000                                                             
     4  1  1.50      -114.3756   6.0000                                                             
     4  2  2.50       -41.6483  10.0000                                                             
     5  0  0.50       -15.1072   2.0000                                                             
     5  1  0.50        -5.9526   4.0000                                                             
     5  2  1.50        -5.4423   0.0000                                                             
     4  3  2.50        -5.4423   0.0000                                                             
   Description                                                                                      
     l       E           TYP  RCUT    TYP  RCUT                                                     
     0    -15.1072389     23  2.300                                                                 
     0    -16.4678215     23  2.300                                                                 
     1     -5.9526306     23  2.300                                                                 
     1     -2.4873968     23  2.300                                                                 
     2     -5.4423304     23  2.300                                                                 
     3     -1.3605826     23  2.300                                                                 
  local pseudopotential read in
  partial core-charges read in
  partial kinetic energy density read in
  atomic valenz-charges read in
  non local Contribution for L=           0  read in
    real space projection operators read in
  non local Contribution for L=           0  read in
    real space projection operators read in
  non local Contribution for L=           1  read in
    real space projection operators read in
  non local Contribution for L=           1  read in
    real space projection operators read in
  non local Contribution for L=           2  read in
    real space projection operators read in
    PAW grid and wavefunctions read in
 
   number of l-projection  operators is LMAX  =           5
   number of lm-projection operators is LMMAX =          13
 
 -----------------------------------------------------------------------------
|                                                                             |
|               ----> ADVICE to this user running VASP <----                  |
|                                                                             |
|     You enforced a specific xc type in the INCAR file but a different       |
|     type was found in the POTCAR file.                                      |
|     I HOPE YOU KNOW WHAT YOU ARE DOING!                                     |
|                                                                             |
 -----------------------------------------------------------------------------

  PAW_PBE Cd 06Sep2000                  :
 energy of atom  1       EATOM=-1293.1815
 kinetic energy error for atom=    0.0041 (will be added to EATOM!!)
  PAW_PBE Te 08Apr2002                  :
 energy of atom  2       EATOM= -223.2721
 kinetic energy error for atom=    0.0004 (will be added to EATOM!!)
 
 
 POSCAR: Cd Te
  positions in cartesian coordinates
  No initial velocities read in
 exchange correlation table for  LEXCH =       14
   RHO(1)=    0.500       N(1)  =     2000
   RHO(2)=  100.500       N(2)  =     4000
 


--------------------------------------------------------------------------------------------------------


 ion  position               nearest neighbor table
   1  0.000  0.000  1.000-   2 2.81   2 2.81   2 2.81   2 2.81
   2  0.750  0.750  0.750-   1 2.81   1 2.81   1 2.81   1 2.81
 
 -----------------------------------------------------------------------------
|                                                                             |
|           W    W    AA    RRRRR   N    N  II  N    N   GGGG   !!!           |
|           W    W   A  A   R    R  NN   N  II  NN   N  G    G  !!!           |
|           W    W  A    A  R    R  N N  N  II  N N  N  G       !!!           |
|           W WW W  AAAAAA  RRRRR   N  N N  II  N  N N  G  GGG   !            |
|           WW  WW  A    A  R   R   N   NN  II  N   NN  G    G                |
|           W    W  A    A  R    R  N    N  II  N    N   GGGG   !!!           |
|                                                                             |
|     The determination of the symmetry of your systems shows a strong        |
|     dependence on the tolerance parameter SYMPREC. This is often the        |
|     result of "noise" in the structural parameters (lattice vectors         |
|     and/or ionic positions). Set NWRITE=3 for more details.                 |
|                                                                             |
 -----------------------------------------------------------------------------

  LATTYP: Found a face centered cubic cell.
 ALAT       =     6.4846000700
  
  Lattice vectors:
  
 A1 = (  -0.0000017000,   3.2422935200,   3.2422944000)
 A2 = (   3.2422972400,   0.0000022700,   3.2422966200)
 A3 = (   3.2423007900,   3.2422992800,   0.0000031700)


Analysis of symmetry for initial positions (statically):
=====================================================================
 Subroutine PRICEL returns:
 Original cell was already a primitive cell.
 

 Routine SETGRP: Setting up the symmetry group for a 
 face centered cubic supercell.


 Subroutine GETGRP returns: Found  4 space group operations
 (whereof  4 operations were pure point group operations)
 out of a pool of 48 trial point group operations.


The static configuration has the point symmetry C_2v.


Analysis of symmetry for dynamics (positions and initial velocities):
=====================================================================
 Subroutine PRICEL returns:
 Original cell was already a primitive cell.
 

 Routine SETGRP: Setting up the symmetry group for a 
 face centered cubic supercell.


 Subroutine GETGRP returns: Found  4 space group operations
 (whereof  4 operations were pure point group operations)
 out of a pool of 48 trial point group operations.


The dynamic configuration has the point symmetry C_2v.


 Subroutine INISYM returns: Found  4 space group operations
 (whereof  4 operations are pure point group operations),
 and found     1 'primitive' translations


----------------------------------------------------------------------------------------

                                     Primitive cell                                     

  volume of cell :      68.1692

  direct lattice vectors                    reciprocal lattice vectors
    -0.000001700  3.242293520  3.242294400    -0.154211842  0.154211763  0.154211764
     3.242297240  0.000002270  3.242296620     0.154211586 -0.154211808  0.154211847
     3.242300790  3.242299280  0.000003170     0.154211460  0.154211720 -0.154211598

  length of vectors
     4.585296091  4.585300292  4.585304683     0.267102655  0.267102581  0.267102314

  position of ions in fractional coordinates (direct lattice)
     0.000005570  0.000006320  0.999994450
     0.749994430  0.749993680  0.750005550

  ion indices of the primitive-cell ions
   primitive index   ion index
                 1           1
                 2           2

----------------------------------------------------------------------------------------

 
 
 KPOINTS: Automatic mesh                          

Automatic generation of k-mesh.
Space group operators:
 irot       det(A)        alpha          n_x          n_y          n_z        tau_x        tau_y        tau_z
    1     1.000000     0.000000     1.000000     0.000000     0.000000     0.000000     0.000000     0.000000
    2     1.000000   180.000000    -0.000001    -0.000000     1.000000     0.000000     0.000000     0.000000
    3    -1.000000   179.999999     0.707106     0.707108     0.000001     0.000000     0.000000     0.000000
    4    -1.000000   179.999999     0.707107    -0.707107     0.000000     0.000000     0.000000     0.000000
 
 Subroutine IBZKPT returns following result:
 ===========================================
 
 Found     18 irreducible k-points:
 
 Following reciprocal coordinates:
            Coordinates               Weight
  0.000000  0.000000  0.000000      1.000000
  0.250000 -0.000000 -0.000000      4.000000
 -0.000000  0.000000  0.250000      4.000000
  0.500000 -0.000000 -0.000000      2.000000
 -0.000000  0.000000  0.500000      2.000000
  0.250000  0.250000  0.000000      2.000000
 -0.000000  0.250000  0.250000      4.000000
  0.500000  0.250000  0.000000      4.000000
 -0.000000  0.500000  0.250000      8.000000
  0.250000  0.000000  0.500000      8.000000
  0.250000  0.250000 -0.250000      4.000000
 -0.250000  0.250000 -0.000000      2.000000
 -0.000000 -0.250000  0.250000      8.000000
  0.250000  0.250000  0.500000      2.000000
  0.500000  0.500000  0.000000      1.000000
 -0.000000  0.500000  0.500000      2.000000
 -0.250000  0.500000  0.250000      4.000000
  0.250000 -0.250000  0.500000      2.000000
 
 Following cartesian coordinates:
            Coordinates               Weight
  0.000000  0.000000  0.000000      1.000000
 -0.038553  0.038553  0.038553      4.000000
  0.038553  0.038553 -0.038553      4.000000
 -0.077106  0.077106  0.077106      2.000000
  0.077106  0.077106 -0.077106      2.000000
 -0.000000 -0.000000  0.077106      2.000000
  0.077106 -0.000000  0.000000      4.000000
 -0.038553  0.038553  0.115659      4.000000
  0.115659 -0.038553  0.038553      8.000000
  0.038553  0.115659 -0.038553      8.000000
 -0.038553 -0.038553  0.115659      4.000000
  0.077106 -0.077106  0.000000      2.000000
 -0.000000  0.077106 -0.077106      8.000000
  0.077106  0.077106  0.000000      2.000000
 -0.000000 -0.000000  0.154212      1.000000
  0.154212 -0.000000  0.000000      2.000000
  0.154212 -0.077106  0.000000      4.000000
 -0.000000  0.154212 -0.077106      2.000000
 


--------------------------------------------------------------------------------------------------------




 Dimension of arrays:
   k-points           NKPTS =     18   k-points in BZ     NKDIM =     18   number of bands    NBANDS=     28
   number of dos      NEDOS =    301   number of ions     NIONS =      2
   non local maximal  LDIM  =      6   non local SUM 2l+1 LMDIM =     18
   total plane-waves  NPLWV =  64000
   max r-space proj   IRMAX =      1   max aug-charges    IRDMAX= 436994
   dimension x,y,z NGX =    40 NGY =   40 NGZ =   40
   dimension x,y,z NGXF=    80 NGYF=   80 NGZF=   80
   support grid    NGXF=   160 NGYF=  160 NGZF=  160
   ions per type =               1   1
   NGX,Y,Z   is equivalent  to a cutoff of  14.50, 14.50, 14.50 a.u.
   NGXF,Y,Z  is equivalent  to a cutoff of  29.01, 29.01, 29.00 a.u.

 SYSTEM =  unknown system                          
 POSCAR =  Cd Te                                   

 Startparameter for this run:
   NWRITE =      2    write-flag & timer
   PREC   = accura    normal or accurate (medium, high low for compatibility)
   ISTART =      0    job   : 0-new  1-cont  2-samecut
   ICHARG =      2    charge: 1-file 2-atom 10-const
   ISPIN  =      1    spin polarized calculation?
   LNONCOLLINEAR =      F non collinear calculations
   LSORBIT =      F    spin-orbit coupling
   INIWAV =      1    electr: 0-lowe 1-rand  2-diag
   LASPH  =      F    aspherical Exc in radial PAW
   METAGGA=      F    non-selfconsistent MetaGGA calc.

 Electronic Relaxation 1
   ENCUT  =  600.0 eV  44.10 Ry    6.64 a.u.   9.16  9.16  9.16*2*pi/ulx,y,z
   ENINI  =  600.0     initial cutoff
   ENAUG  =  456.1 eV  augmentation charge cutoff
   NELM   =     60;   NELMIN=  5; NELMDL=  0     # of ELM steps 
   EDIFF  = 0.1E-07   stopping-criterion for ELM
   LREAL  =      F    real-space projection
   NLSPLINE    = F    spline interpolate recip. space projectors
   LCOMPAT=      F    compatible to vasp.4.4
   GGA_COMPAT  = T    GGA compatible to vasp.4.4-vasp.4.6
   LMAXPAW     = -100 max onsite density
   LMAXMIX     =    2 max onsite mixed and CHGCAR
   VOSKOWN=      0    Vosko Wilk Nusair interpolation
   ROPT   =    0.00000   0.00000
 Ionic relaxation
   EDIFFG = -.5E-02   stopping-criterion for IOM
   NSW    =    100    number of steps for IOM
   NBLOCK =      1;   KBLOCK =    100    inner block; outer block 
   IBRION =      1    ionic relax: 0-MD 1-quasi-New 2-CG
   NFREE  =      0    steps in history (QN), initial steepest desc. (CG)
   ISIF   =      3    stress and relaxation
   IWAVPR =     11    prediction:  0-non 1-charg 2-wave 3-comb
   ISYM   =      2    0-nonsym 1-usesym 2-fastsym
   LCORR  =      T    Harris-Foulkes like correction to forces

   POTIM  = 0.5000    time-step for ionic-motion
   TEIN   =    0.0    initial temperature
   TEBEG  =    0.0;   TEEND  =   0.0 temperature during run
   SMASS  =  -3.00    Nose mass-parameter (am)
   estimated Nose-frequenzy (Omega)   =  0.10E-29 period in steps = 0.13E+47 mass=  -0.480E-27a.u.
   SCALEE = 1.0000    scale energy and forces
   NPACO  =    256;   APACO  = 16.0  distance and # of slots for P.C.
   PSTRESS=    0.0 pullay stress

  Mass of Ions in am
   POMASS = 112.41127.60
  Ionic Valenz
   ZVAL   =  12.00  6.00
  Atomic Wigner-Seitz radii
   RWIGS  =  -1.00 -1.00
  virtual crystal weights 
   VCA    =   1.00  1.00
   NELECT =      18.0000    total number of electrons
   NUPDOWN=      -1.0000    fix difference up-down

 DOS related values:
   EMIN   =  10.00;   EMAX   =-10.00  energy-range for DOS
   EFERMI =   0.00
   ISMEAR =     1;   SIGMA  =   0.20  broadening in eV -4-tet -1-fermi 0-gaus

 Electronic relaxation 2 (details)
   IALGO  =     38    algorithm
   LDIAG  =      T    sub-space diagonalisation (order eigenvalues)
   LSUBROT=      F    optimize rotation matrix (better conditioning)
   TURBO    =      0    0=normal 1=particle mesh
   IRESTART =      0    0=no restart 2=restart with 2 vectors
   NREBOOT  =      0    no. of reboots
   NMIN     =      0    reboot dimension
   EREF     =   0.00    reference energy to select bands
   IMIX   =      4    mixing-type and parameters
     AMIX     =   0.40;   BMIX     =  1.00
     AMIX_MAG =   1.60;   BMIX_MAG =  1.00
     AMIN     =   0.10
     WC   =   100.;   INIMIX=   1;  MIXPRE=   1;  MAXMIX= -45

 Intra band minimization:
   WEIMIN = 0.0010     energy-eigenvalue tresh-hold
   EBREAK =  0.89E-10  absolut break condition
   DEPER  =   0.30     relativ break condition  

   TIME   =   0.40     timestep for ELM

  volume/ion in A,a.u.               =      34.08       230.01
  Fermi-wavevector in a.u.,A,eV,Ry     =   1.050275  1.984732 15.008277  1.103077
  Thomas-Fermi vector in A             =   2.185271
 
 Write flags
   LWAVE        =      F    write WAVECAR
   LDOWNSAMPLE  =      F    k-point downsampling of WAVECAR
   LCHARG       =      F    write CHGCAR
   LVTOT        =      F    write LOCPOT, total local potential
   LVHAR        =      F    write LOCPOT, Hartree potential only
   LELF         =      F    write electronic localiz. function (ELF)
   LORBIT       =      0    0 simple, 1 ext, 2 COOP (PROOUT), +10 PAW based schemes


 Dipole corrections
   LMONO  =      F    monopole corrections only (constant potential shift)
   LDIPOL =      F    correct potential (dipole corrections)
   IDIPOL =      0    1-x, 2-y, 3-z, 4-all directions 
   EPSILON=  1.0000000 bulk dielectric constant

 Exchange correlation treatment:
   GGA     =    PS    GGA type
   LEXCH   =    14    internal setting for exchange type
   VOSKOWN=      0    Vosko Wilk Nusair interpolation
   LHFCALC =     F    Hartree Fock is set to
   LHFONE  =     F    Hartree Fock one center treatment
   AEXX    =    0.0000 exact exchange contribution

 Linear response parameters
   LEPSILON=     F    determine dielectric tensor
   LRPA    =     F    only Hartree local field effects (RPA)
   LNABLA  =     F    use nabla operator in PAW spheres
   LVEL    =     F    velocity operator in full k-point grid
   LINTERFAST=   F  fast interpolation
   KINTER  =     0    interpolate to denser k-point grid
   CSHIFT  =0.1000    complex shift for real part using Kramers Kronig
   OMEGAMAX=  -1.0    maximum frequency
   DEG_THRESHOLD= 0.2000000E-02 threshold for treating states as degnerate
   RTIME   =   -0.100 relaxation time in fs
  (WPLASMAI=    0.000 imaginary part of plasma frequency in eV, 0.658/RTIME)
   DFIELD  = 0.0000000 0.0000000 0.0000000 field for delta impulse in time
 
 Orbital magnetization related:
   ORBITALMAG=     F  switch on orbital magnetization
   LCHIMAG   =     F  perturbation theory with respect to B field
   DQ        =  0.001000  dq finite difference perturbation B field
   LLRAUG    =     F  two centre corrections for induced B field



--------------------------------------------------------------------------------------------------------


 quasi-Newton-method for relaxation of ions
 charge density and potential will be updated during run
 non-spin polarized calculation
 Variant of blocked Davidson
 Davidson routine will perform the subspace rotation
 perform sub-space diagonalisation
    after iterative eigenvector-optimisation
 modified Broyden-mixing scheme, WC =      100.0
 initial mixing is a Kerker type mixing with AMIX =  0.4000 and BMIX =      1.0000
 Hartree-type preconditioning will be used
 using additional bands           19
 reciprocal scheme for non local part
 use partial core corrections
 calculate Harris-corrections to forces 
   (improved forces if not selfconsistent)
 use gradient corrections 
 use of overlap-Matrix (Vanderbilt PP)
 Methfessel and Paxton  Order N= 1 SIGMA  =   0.20


--------------------------------------------------------------------------------------------------------


  energy-cutoff  :      600.00
  volume of cell :       68.17
      direct lattice vectors                 reciprocal lattice vectors
    -0.000001700  3.242293520  3.242294400    -0.154211842  0.154211763  0.154211764
     3.242297240  0.000002270  3.242296620     0.154211586 -0.154211808  0.154211847
     3.242300790  3.242299280  0.000003170     0.154211460  0.154211720 -0.154211598

  length of vectors
     4.585296091  4.585300292  4.585304683     0.267102655  0.267102581  0.267102314


 
 k-points in units of 2pi/SCALE and weight: Automatic mesh                          
   0.00000000  0.00000000  0.00000000       0.016
  -0.03855296  0.03855294  0.03855294       0.062
   0.03855287  0.03855293 -0.03855290       0.062
  -0.07710592  0.07710588  0.07710588       0.031
   0.07710573  0.07710586 -0.07710580       0.031
  -0.00000006 -0.00000001  0.07710590       0.031
   0.07710576 -0.00000002  0.00000006       0.062
  -0.03855302  0.03855293  0.11565884       0.062
   0.11565866 -0.03855297  0.03855302       0.125
   0.03855277  0.11565880 -0.03855286       0.125
  -0.03855293 -0.03855294  0.11565880       0.062
   0.07710586 -0.07710589  0.00000002       0.031
  -0.00000003  0.07710588 -0.07710586       0.125
   0.07710567  0.07710585  0.00000010       0.031
  -0.00000013 -0.00000002  0.15421181       0.016
   0.15421152 -0.00000004  0.00000012       0.031
   0.15421162 -0.07710591  0.00000008       0.062
  -0.00000013  0.15421175 -0.07710582       0.031
 
 k-points in reciprocal lattice and weights: Automatic mesh                          
   0.00000000  0.00000000  0.00000000       0.016
   0.25000000 -0.00000000 -0.00000000       0.062
  -0.00000000  0.00000000  0.25000000       0.062
   0.50000000 -0.00000000 -0.00000000       0.031
  -0.00000000  0.00000000  0.50000000       0.031
   0.25000000  0.25000000  0.00000000       0.031
  -0.00000000  0.25000000  0.25000000       0.062
   0.50000000  0.25000000  0.00000000       0.062
  -0.00000000  0.50000000  0.25000000       0.125
   0.25000000  0.00000000  0.50000000       0.125
   0.25000000  0.25000000 -0.25000000       0.062
  -0.25000000  0.25000000 -0.00000000       0.031
  -0.00000000 -0.25000000  0.25000000       0.125
   0.25000000  0.25000000  0.50000000       0.031
   0.50000000  0.50000000  0.00000000       0.016
  -0.00000000  0.50000000  0.50000000       0.031
  -0.25000000  0.50000000  0.25000000       0.062
   0.25000000 -0.25000000  0.50000000       0.031
 
 position of ions in fractional coordinates (direct lattice) 
   0.00000557  0.00000632  0.99999445
   0.74999443  0.74999368  0.75000555
 
 position of ions in cartesian coordinates  (Angst):
   3.24230329  3.24229934  0.00004172
   4.86344475  4.86344624  4.86340709
 


--------------------------------------------------------------------------------------------------------


 k-point   1 :   0.0000 0.0000 0.0000  plane waves:    2229
 k-point   2 :   0.2500-0.0000-0.0000  plane waves:    2259
 k-point   3 :  -0.0000 0.0000 0.2500  plane waves:    2259
 k-point   4 :   0.5000-0.0000-0.0000  plane waves:    2276
 k-point   5 :  -0.0000 0.0000 0.5000  plane waves:    2276
 k-point   6 :   0.2500 0.2500 0.0000  plane waves:    2269
 k-point   7 :  -0.0000 0.2500 0.2500  plane waves:    2269
 k-point   8 :   0.5000 0.2500 0.0000  plane waves:    2284
 k-point   9 :  -0.0000 0.5000 0.2500  plane waves:    2284
 k-point  10 :   0.2500 0.0000 0.5000  plane waves:    2284
 k-point  11 :   0.2500 0.2500-0.2500  plane waves:    2284
 k-point  12 :  -0.2500 0.2500-0.0000  plane waves:    2281
 k-point  13 :  -0.0000-0.2500 0.2500  plane waves:    2281
 k-point  14 :   0.2500 0.2500 0.5000  plane waves:    2281
 k-point  15 :   0.5000 0.5000 0.0000  plane waves:    2272
 k-point  16 :  -0.0000 0.5000 0.5000  plane waves:    2272
 k-point  17 :  -0.2500 0.5000 0.2500  plane waves:    2268
 k-point  18 :   0.2500-0.2500 0.5000  plane waves:    2268

 maximum and minimum number of plane-waves per node :      2284     2229

 maximum number of plane-waves:      2284
 maximum index in each direction: 
   IXMAX=    9   IYMAX=    9   IZMAX=    9
   IXMIN=   -9   IYMIN=   -9   IZMIN=   -9


 serial   3D FFT for wavefunctions
 parallel 3D FFT for charge:
    minimum data exchange during FFTs selected (reduces bandwidth)


 total amount of memory used by VASP MPI-rank0    49442. kBytes
=======================================================================

   base      :      30000. kBytes
   nonl-proj :      11975. kBytes
   fftplans  :       3079. kBytes
   grid      :       3680. kBytes
   one-center:         31. kBytes
   wavefun   :        677. kBytes
 
     INWAV:  cpu time    0.0000: real time    0.0000
 Broyden mixing: mesh for mixing (old mesh)
   NGX = 19   NGY = 19   NGZ = 19
  (NGX  = 80   NGY  = 80   NGZ  = 80)
  gives a total of   6859 points

 initial charge density was supplied:
 charge density of overlapping atoms calculated
 number of electron      18.0000000 magnetization 
 keeping initial charge density in first step


--------------------------------------------------------------------------------------------------------


 Maximum index for augmentation-charges        16855 (set IRDMAX)


--------------------------------------------------------------------------------------------------------


 First call to EWALD:  gamma=   0.434
 Maximum number of real-space cells 3x 3x 3
 Maximum number of reciprocal cells 3x 3x 3

    FEWALD:  cpu time    0.0013: real time    0.0013


--------------------------------------- Iteration      1(   1)  ---------------------------------------


    POTLOK:  cpu time    0.0116: real time    0.0318
    SETDIJ:  cpu time    0.0237: real time    0.0236
     EDDAV:  cpu time    0.2698: real time    0.2788
       DOS:  cpu time    0.0004: real time    0.0004
    --------------------------------------------
      LOOP:  cpu time    0.3055: real time    0.3347

 eigenvalue-minimisations  :  1008
 total energy-change (2. order) : 0.5496930E+02  (-0.9723500E+03)
 number of electron      18.0000000 magnetization 
 augmentation part       18.0000000 magnetization 

 Free energy of the ion-electron system (eV)
  ---------------------------------------------------
  alpha Z        PSCENC =        50.12830081
  Ewald energy   TEWEN  =     -1044.52642208
  -Hartree energ DENC   =      -510.29059307
  -exchange      EXHF   =         0.00000000
  -V(xc)+E(xc)   XCENC  =       -20.64710916
  PAW double counting   =      1402.45578259    -1331.56119850
  entropy T*S    EENTRO =         0.00023750
  eigenvalues    EBANDS =        -6.79756503
  atomic energy  EATOM  =      1516.20786294
  Solvation  Ediel_sol  =         0.00000000
  ---------------------------------------------------
  free energy    TOTEN  =        54.96929601 eV

  energy without entropy =       54.96905851  energy(sigma->0) =       54.96921684


--------------------------------------------------------------------------------------------------------




--------------------------------------- Iteration      1(   2)  ---------------------------------------


     EDDAV:  cpu time    0.3408: real time    0.3409
       DOS:  cpu time    0.0003: real time    0.0003
    --------------------------------------------
      LOOP:  cpu time    0.3411: real time    0.3412

 eigenvalue-minimisations  :  1288
 total energy-change (2. order) :-0.6005031E+02  (-0.6000527E+02)
 number of electron      18.0000000 magnetization 
 augmentation part       18.0000000 magnetization 

 Free energy of the ion-electron system (eV)
  ---------------------------------------------------
  alpha Z        PSCENC =        50.12830081
  Ewald energy   TEWEN  =     -1044.52642208
  -Hartree energ DENC   =      -510.29059307
  -exchange      EXHF   =         0.00000000
  -V(xc)+E(xc)   XCENC  =       -20.64710916
  PAW double counting   =      1402.45578259    -1331.56119850
  entropy T*S    EENTRO =         0.00058442
  eigenvalues    EBANDS =       -66.84822618
  atomic energy  EATOM  =      1516.20786294
  Solvation  Ediel_sol  =         0.00000000
  ---------------------------------------------------
  free energy    TOTEN  =        -5.08101822 eV

  energy without entropy =       -5.08160265  energy(sigma->0) =       -5.08121303


--------------------------------------------------------------------------------------------------------




--------------------------------------- Iteration      1(   3)  ---------------------------------------


     EDDAV:  cpu time    0.3715: real time    0.3712
       DOS:  cpu time    0.0006: real time    0.0005
    --------------------------------------------
      LOOP:  cpu time    0.3721: real time    0.3717

 eigenvalue-minimisations  :  1372
 total energy-change (2. order) :-0.6113810E+00  (-0.6113690E+00)
 number of electron      18.0000000 magnetization 
 augmentation part       18.0000000 magnetization 

 Free energy of the ion-electron system (eV)
  ---------------------------------------------------
  alpha Z        PSCENC =        50.12830081
  Ewald energy   TEWEN  =     -1044.52642208
  -Hartree energ DENC   =      -510.29059307
  -exchange      EXHF   =         0.00000000
  -V(xc)+E(xc)   XCENC  =       -20.64710916
  PAW double counting   =      1402.45578259    -1331.56119850
  entropy T*S    EENTRO =         0.00057859
  eigenvalues    EBANDS =       -67.45960131
  atomic energy  EATOM  =      1516.20786294
  Solvation  Ediel_sol  =         0.00000000
  ---------------------------------------------------
  free energy    TOTEN  =        -5.69239918 eV

  energy without entropy =       -5.69297777  energy(sigma->0) =       -5.69259204


--------------------------------------------------------------------------------------------------------




--------------------------------------- Iteration      1(   4)  ---------------------------------------


     EDDAV:  cpu time    0.4850: real time    0.4849
       DOS:  cpu time    0.0003: real time    0.0003
    --------------------------------------------
      LOOP:  cpu time    0.4853: real time    0.4852

 eigenvalue-minimisations  :  1708
 total energy-change (2. order) :-0.7800914E-03  (-0.7800915E-03)
 number of electron      18.0000000 magnetization 
 augmentation part       18.0000000 magnetization 

 Free energy of the ion-electron system (eV)
  ---------------------------------------------------
  alpha Z        PSCENC =        50.12830081
  Ewald energy   TEWEN  =     -1044.52642208
  -Hartree energ DENC   =      -510.29059307
  -exchange      EXHF   =         0.00000000
  -V(xc)+E(xc)   XCENC  =       -20.64710916
  PAW double counting   =      1402.45578259    -1331.56119850
  entropy T*S    EENTRO =         0.00057868
  eigenvalues    EBANDS =       -67.46038148
  atomic energy  EATOM  =      1516.20786294
  Solvation  Ediel_sol  =         0.00000000
  ---------------------------------------------------
  free energy    TOTEN  =        -5.69317927 eV

  energy without entropy =       -5.69375795  energy(sigma->0) =       -5.69337216


--------------------------------------------------------------------------------------------------------




--------------------------------------- Iteration      1(   5)  ---------------------------------------


     EDDAV:  cpu time    0.3549: real time    0.3553
       DOS:  cpu time    0.0004: real time    0.0003
    CHARGE:  cpu time    0.0637: real time    0.0638
    MIXING:  cpu time    0.0013: real time    0.0015
    --------------------------------------------
      LOOP:  cpu time    0.4204: real time    0.4208

 eigenvalue-minimisations  :  1316
 total energy-change (2. order) :-0.4033354E-06  (-0.4032918E-06)
 number of electron      18.0000000 magnetization 
 augmentation part        4.4440991 magnetization 

 Broyden mixing:
  rms(total) = 0.53535E+00    rms(broyden)= 0.53535E+00
  rms(prec ) = 0.86164E+00
  weight for this iteration     100.00

 Free energy of the ion-electron system (eV)
  ---------------------------------------------------
  alpha Z        PSCENC =        50.12830081
  Ewald energy   TEWEN  =     -1044.52642208
  -Hartree energ DENC   =      -510.29059307
  -exchange      EXHF   =         0.00000000
  -V(xc)+E(xc)   XCENC  =       -20.64710916
  PAW double counting   =      1402.45578259    -1331.56119850
  entropy T*S    EENTRO =         0.00057868
  eigenvalues    EBANDS =       -67.46038188
  atomic energy  EATOM  =      1516.20786294
  Solvation  Ediel_sol  =         0.00000000
  ---------------------------------------------------
  free energy    TOTEN  =        -5.69317967 eV

  energy without entropy =       -5.69375835  energy(sigma->0) =       -5.69337257


--------------------------------------------------------------------------------------------------------




--------------------------------------- Iteration      1(   6)  ---------------------------------------


    POTLOK:  cpu time    0.0098: real time    0.0105
    SETDIJ:  cpu time    0.0224: real time    0.0224
     EDDAV:  cpu time    0.3879: real time    0.3877
       DOS:  cpu time    0.0003: real time    0.0003
    CHARGE:  cpu time    0.0599: real time    0.0602
    MIXING:  cpu time    0.0010: real time    0.0011
    --------------------------------------------
      LOOP:  cpu time    0.4814: real time    0.4822

 eigenvalue-minimisations  :  1428
 total energy-change (2. order) : 0.2475953E+00  (-0.9226767E-01)
 number of electron      18.0000000 magnetization 
 augmentation part        4.5505366 magnetization 

 Broyden mixing:
  rms(total) = 0.41657E+00    rms(broyden)= 0.41657E+00
  rms(prec ) = 0.48116E+00
  weight for this iteration     100.00

 eigenvalues of (default mixing * dielectric matrix)
  average eigenvalue GAMMA=   1.8660
  1.8660

 Free energy of the ion-electron system (eV)
  ---------------------------------------------------
  alpha Z        PSCENC =        50.12830081
  Ewald energy   TEWEN  =     -1044.52642208
  -Hartree energ DENC   =      -503.52591300
  -exchange      EXHF   =         0.00000000
  -V(xc)+E(xc)   XCENC  =       -20.76627516
  PAW double counting   =      1499.88131741    -1428.44763174
  entropy T*S    EENTRO =         0.00057388
  eigenvalues    EBANDS =       -74.39739745
  atomic energy  EATOM  =      1516.20786294
  Solvation  Ediel_sol  =         0.00000000
  ---------------------------------------------------
  free energy    TOTEN  =        -5.44558437 eV

  energy without entropy =       -5.44615825  energy(sigma->0) =       -5.44577567


--------------------------------------------------------------------------------------------------------




--------------------------------------- Iteration      1(   7)  ---------------------------------------


    POTLOK:  cpu time    0.0097: real time    0.0109
    SETDIJ:  cpu time    0.0232: real time    0.0232
     EDDAV:  cpu time    0.3906: real time    0.3903
       DOS:  cpu time    0.0003: real time    0.0003
    CHARGE:  cpu time    0.0431: real time    0.0431
    MIXING:  cpu time    0.0006: real time    0.0005
    --------------------------------------------
      LOOP:  cpu time    0.4675: real time    0.4684

 eigenvalue-minimisations  :  1456
 total energy-change (2. order) : 0.2295697E-01  (-0.8544796E-02)
 number of electron      18.0000000 magnetization 
 augmentation part        4.5700943 magnetization 

 Broyden mixing:
  rms(total) = 0.19249E+00    rms(broyden)= 0.19249E+00
  rms(prec ) = 0.21036E+00
  weight for this iteration     100.00

 eigenvalues of (default mixing * dielectric matrix)
  average eigenvalue GAMMA=   1.7863
  1.0895  2.4831

 Free energy of the ion-electron system (eV)
  ---------------------------------------------------
  alpha Z        PSCENC =        50.12830081
  Ewald energy   TEWEN  =     -1044.52642208
  -Hartree energ DENC   =      -502.47792073
  -exchange      EXHF   =         0.00000000
  -V(xc)+E(xc)   XCENC  =       -20.72511177
  PAW double counting   =      1609.79241281    -1538.37510864
  entropy T*S    EENTRO =         0.00060391
  eigenvalues    EBANDS =       -75.44724466
  atomic energy  EATOM  =      1516.20786294
  Solvation  Ediel_sol  =         0.00000000
  ---------------------------------------------------
  free energy    TOTEN  =        -5.42262741 eV

  energy without entropy =       -5.42323131  energy(sigma->0) =       -5.42282871


--------------------------------------------------------------------------------------------------------




--------------------------------------- Iteration      1(   8)  ---------------------------------------


    POTLOK:  cpu time    0.0095: real time    0.0096
    SETDIJ:  cpu time    0.0225: real time    0.0224
     EDDAV:  cpu time    0.3546: real time    0.3544
       DOS:  cpu time    0.0004: real time    0.0004
    CHARGE:  cpu time    0.0514: real time    0.0517
    MIXING:  cpu time    0.0007: real time    0.0007
    --------------------------------------------
      LOOP:  cpu time    0.4391: real time    0.4391

 eigenvalue-minimisations  :  1288
 total energy-change (2. order) : 0.1239829E-02  (-0.8446610E-03)
 number of electron      18.0000000 magnetization 
 augmentation part        4.5657297 magnetization 

 Broyden mixing:
  rms(total) = 0.15948E-01    rms(broyden)= 0.15947E-01
  rms(prec ) = 0.25101E-01
  weight for this iteration     100.00

 eigenvalues of (default mixing * dielectric matrix)
  average eigenvalue GAMMA=   1.6050
  2.3529  1.2310  1.2310

 Free energy of the ion-electron system (eV)
  ---------------------------------------------------
  alpha Z        PSCENC =        50.12830081
  Ewald energy   TEWEN  =     -1044.52642208
  -Hartree energ DENC   =      -502.69274049
  -exchange      EXHF   =         0.00000000
  -V(xc)+E(xc)   XCENC  =       -20.67188791
  PAW double counting   =      1695.02410690    -1623.75195629
  entropy T*S    EENTRO =         0.00061928
  eigenvalues    EBANDS =       -75.13927074
  atomic energy  EATOM  =      1516.20786294
  Solvation  Ediel_sol  =         0.00000000
  ---------------------------------------------------
  free energy    TOTEN  =        -5.42138758 eV

  energy without entropy =       -5.42200685  energy(sigma->0) =       -5.42159400


--------------------------------------------------------------------------------------------------------




--------------------------------------- Iteration      1(   9)  ---------------------------------------


    POTLOK:  cpu time    0.0102: real time    0.0111
    SETDIJ:  cpu time    0.0232: real time    0.0231
     EDDAV:  cpu time    0.3828: real time    0.3825
       DOS:  cpu time    0.0003: real time    0.0003
    CHARGE:  cpu time    0.0432: real time    0.0432
    MIXING:  cpu time    0.0005: real time    0.0005
    --------------------------------------------
      LOOP:  cpu time    0.4601: real time    0.4607

 eigenvalue-minimisations  :  1400
 total energy-change (2. order) :-0.1364880E-04  (-0.7122596E-04)
 number of electron      18.0000000 magnetization 
 augmentation part        4.5660621 magnetization 

 Broyden mixing:
  rms(total) = 0.48067E-02    rms(broyden)= 0.48067E-02
  rms(prec ) = 0.80615E-02
  weight for this iteration     100.00

 eigenvalues of (default mixing * dielectric matrix)
  average eigenvalue GAMMA=   1.6264
  2.4805  1.1334  1.1334  1.7581

 Free energy of the ion-electron system (eV)
  ---------------------------------------------------
  alpha Z        PSCENC =        50.12830081
  Ewald energy   TEWEN  =     -1044.52642208
  -Hartree energ DENC   =      -502.57495589
  -exchange      EXHF   =         0.00000000
  -V(xc)+E(xc)   XCENC  =       -20.67325289
  PAW double counting   =      1704.48401535    -1633.21696376
  entropy T*S    EENTRO =         0.00061009
  eigenvalues    EBANDS =       -75.25059580
  atomic energy  EATOM  =      1516.20786294
  Solvation  Ediel_sol  =         0.00000000
  ---------------------------------------------------
  free energy    TOTEN  =        -5.42140123 eV

  energy without entropy =       -5.42201132  energy(sigma->0) =       -5.42160459


--------------------------------------------------------------------------------------------------------




--------------------------------------- Iteration      1(  10)  ---------------------------------------


    POTLOK:  cpu time    0.0096: real time    0.0096
    SETDIJ:  cpu time    0.0224: real time    0.0223
     EDDAV:  cpu time    0.3677: real time    0.3674
       DOS:  cpu time    0.0003: real time    0.0003
    CHARGE:  cpu time    0.0434: real time    0.0436
    MIXING:  cpu time    0.0012: real time    0.0012
    --------------------------------------------
      LOOP:  cpu time    0.4445: real time    0.4443

 eigenvalue-minimisations  :  1344
 total energy-change (2. order) :-0.5324593E-04  (-0.5298726E-05)
 number of electron      18.0000000 magnetization 
 augmentation part        4.5657038 magnetization 

 Broyden mixing:
  rms(total) = 0.26954E-02    rms(broyden)= 0.26954E-02
  rms(prec ) = 0.36515E-02
  weight for this iteration     100.00

 eigenvalues of (default mixing * dielectric matrix)
  average eigenvalue GAMMA=   1.5756
  2.3666  1.1038  1.1038  1.7191  1.5846

 Free energy of the ion-electron system (eV)
  ---------------------------------------------------
  alpha Z        PSCENC =        50.12830081
  Ewald energy   TEWEN  =     -1044.52642208
  -Hartree energ DENC   =      -502.59277388
  -exchange      EXHF   =         0.00000000
  -V(xc)+E(xc)   XCENC  =       -20.66982762
  PAW double counting   =      1709.51847511    -1638.25477804
  entropy T*S    EENTRO =         0.00060831
  eigenvalues    EBANDS =       -75.23290003
  atomic energy  EATOM  =      1516.20786294
  Solvation  Ediel_sol  =         0.00000000
  ---------------------------------------------------
  free energy    TOTEN  =        -5.42145447 eV

  energy without entropy =       -5.42206278  energy(sigma->0) =       -5.42165724


--------------------------------------------------------------------------------------------------------




--------------------------------------- Iteration      1(  11)  ---------------------------------------


    POTLOK:  cpu time    0.0096: real time    0.0103
    SETDIJ:  cpu time    0.0225: real time    0.0225
     EDDAV:  cpu time    0.3673: real time    0.3670
       DOS:  cpu time    0.0003: real time    0.0003
    CHARGE:  cpu time    0.0509: real time    0.0509
    MIXING:  cpu time    0.0010: real time    0.0010
    --------------------------------------------
      LOOP:  cpu time    0.4515: real time    0.4520

 eigenvalue-minimisations  :  1344
 total energy-change (2. order) :-0.1339105E-04  (-0.1323258E-05)
 number of electron      18.0000000 magnetization 
 augmentation part        4.5657590 magnetization 

 Broyden mixing:
  rms(total) = 0.97615E-03    rms(broyden)= 0.97612E-03
  rms(prec ) = 0.13600E-02
  weight for this iteration     100.00

 eigenvalues of (default mixing * dielectric matrix)
  average eigenvalue GAMMA=   1.7115
  2.8608  2.4747  1.5789  0.9891  1.2381  1.1276

 Free energy of the ion-electron system (eV)
  ---------------------------------------------------
  alpha Z        PSCENC =        50.12830081
  Ewald energy   TEWEN  =     -1044.52642208
  -Hartree energ DENC   =      -502.62833004
  -exchange      EXHF   =         0.00000000
  -V(xc)+E(xc)   XCENC  =       -20.66830676
  PAW double counting   =      1708.39890421    -1637.13162823
  entropy T*S    EENTRO =         0.00060773
  eigenvalues    EBANDS =       -75.20245645
  atomic energy  EATOM  =      1516.20786294
  Solvation  Ediel_sol  =         0.00000000
  ---------------------------------------------------
  free energy    TOTEN  =        -5.42146786 eV

  energy without entropy =       -5.42207560  energy(sigma->0) =       -5.42167044


--------------------------------------------------------------------------------------------------------




--------------------------------------- Iteration      1(  12)  ---------------------------------------


    POTLOK:  cpu time    0.0096: real time    0.0096
    SETDIJ:  cpu time    0.0231: real time    0.0231
     EDDAV:  cpu time    0.3655: real time    0.3652
       DOS:  cpu time    0.0003: real time    0.0003
    CHARGE:  cpu time    0.0428: real time    0.0428
    MIXING:  cpu time    0.0006: real time    0.0006
    --------------------------------------------
      LOOP:  cpu time    0.4419: real time    0.4416

 eigenvalue-minimisations  :  1344
 total energy-change (2. order) :-0.2271764E-05  (-0.2338493E-06)
 number of electron      18.0000000 magnetization 
 augmentation part        4.5657234 magnetization 

 Broyden mixing:
  rms(total) = 0.25389E-03    rms(broyden)= 0.25377E-03
  rms(prec ) = 0.33224E-03
  weight for this iteration     100.00

 eigenvalues of (default mixing * dielectric matrix)
  average eigenvalue GAMMA=   1.8999
  3.1296  2.8104  2.4628  1.6065  1.0233  1.1113  1.1553

 Free energy of the ion-electron system (eV)
  ---------------------------------------------------
  alpha Z        PSCENC =        50.12830081
  Ewald energy   TEWEN  =     -1044.52642208
  -Hartree energ DENC   =      -502.63632873
  -exchange      EXHF   =         0.00000000
  -V(xc)+E(xc)   XCENC  =       -20.66759584
  PAW double counting   =      1709.03727767    -1637.77069549
  entropy T*S    EENTRO =         0.00060728
  eigenvalues    EBANDS =       -75.19447671
  atomic energy  EATOM  =      1516.20786294
  Solvation  Ediel_sol  =         0.00000000
  ---------------------------------------------------
  free energy    TOTEN  =        -5.42147013 eV

  energy without entropy =       -5.42207741  energy(sigma->0) =       -5.42167256


--------------------------------------------------------------------------------------------------------




--------------------------------------- Iteration      1(  13)  ---------------------------------------


    POTLOK:  cpu time    0.0096: real time    0.0096
    SETDIJ:  cpu time    0.0232: real time    0.0232
     EDDAV:  cpu time    0.4001: real time    0.3998
       DOS:  cpu time    0.0003: real time    0.0003
    CHARGE:  cpu time    0.0431: real time    0.0431
    MIXING:  cpu time    0.0006: real time    0.0006
    --------------------------------------------
      LOOP:  cpu time    0.4769: real time    0.4766

 eigenvalue-minimisations  :  1456
 total energy-change (2. order) :-0.2134016E-06  (-0.3945073E-07)
 number of electron      18.0000000 magnetization 
 augmentation part        4.5657248 magnetization 

 Broyden mixing:
  rms(total) = 0.64979E-04    rms(broyden)= 0.64516E-04
  rms(prec ) = 0.69740E-04
  weight for this iteration     100.00

 eigenvalues of (default mixing * dielectric matrix)
  average eigenvalue GAMMA=   1.8052
  3.4598  2.7569  2.4417  1.5966  1.1977  1.1165  1.0228  0.8495

 Free energy of the ion-electron system (eV)
  ---------------------------------------------------
  alpha Z        PSCENC =        50.12830081
  Ewald energy   TEWEN  =     -1044.52642208
  -Hartree energ DENC   =      -502.63918617
  -exchange      EXHF   =         0.00000000
  -V(xc)+E(xc)   XCENC  =       -20.66753439
  PAW double counting   =      1708.90892315    -1637.64265533
  entropy T*S    EENTRO =         0.00060713
  eigenvalues    EBANDS =       -75.19136642
  atomic energy  EATOM  =      1516.20786294
  Solvation  Ediel_sol  =         0.00000000
  ---------------------------------------------------
  free energy    TOTEN  =        -5.42147035 eV

  energy without entropy =       -5.42207748  energy(sigma->0) =       -5.42167273


--------------------------------------------------------------------------------------------------------




--------------------------------------- Iteration      1(  14)  ---------------------------------------


    POTLOK:  cpu time    0.0095: real time    0.0095
    SETDIJ:  cpu time    0.0231: real time    0.0231
     EDDAV:  cpu time    0.4196: real time    0.4193
       DOS:  cpu time    0.0003: real time    0.0003
    --------------------------------------------
      LOOP:  cpu time    0.4525: real time    0.4522

 eigenvalue-minimisations  :  1512
 total energy-change (2. order) :-0.6887149E-09  (-0.1695418E-09)
 number of electron      18.0000000 magnetization 
 augmentation part        4.5657248 magnetization 

 Free energy of the ion-electron system (eV)
  ---------------------------------------------------
  alpha Z        PSCENC =        50.12830081
  Ewald energy   TEWEN  =     -1044.52642208
  -Hartree energ DENC   =      -502.63904598
  -exchange      EXHF   =         0.00000000
  -V(xc)+E(xc)   XCENC  =       -20.66753448
  PAW double counting   =      1708.91569773    -1637.64942516
  entropy T*S    EENTRO =         0.00060712
  eigenvalues    EBANDS =       -75.19151127
  atomic energy  EATOM  =      1516.20786294
  Solvation  Ediel_sol  =         0.00000000
  ---------------------------------------------------
  free energy    TOTEN  =        -5.42147035 eV

  energy without entropy =       -5.42207747  energy(sigma->0) =       -5.42167272


--------------------------------------------------------------------------------------------------------




 average (electrostatic) potential at core
  the test charge radii are     1.0698  1.1897
  (the norm of the test charge is              1.0000)
       1 -38.9886       2 -91.2055
 
 
 
 E-fermi :   2.3937     XC(G=0):  -8.7600     alpha+bet : -7.4162


 k-point     1 :       0.0000    0.0000    0.0000
  band No.  band energies     occupation 
      1      -8.9729      2.00000
      2      -6.0589      2.00000
      3      -6.0588      2.00000
      4      -6.0588      2.00000
      5      -5.7979      2.00000
      6      -5.7979      2.00000
      7       2.2251      2.00058
      8       2.2252      2.00044
      9       2.2252      2.00031
     10       2.8676     -0.00407
     11       6.7500     -0.00000
     12       6.7501     -0.00000
     13       6.7501     -0.00000
     14       9.5112      0.00000
     15      11.5508      0.00000
     16      11.5509      0.00000
     17      12.1972      0.00000
     18      12.1973      0.00000
     19      12.1973      0.00000
     20      14.5259      0.00000
     21      21.9234      0.00000
     22      21.9235      0.00000
     23      21.9235      0.00000
     24      22.9231      0.00000
     25      22.9231      0.00000
     26      22.9231      0.00000
     27      23.9819      0.00000
     28      23.9819      0.00000

 k-point     2 :       0.2500   -0.0000   -0.0000
  band No.  band energies     occupation 
      1      -8.7696      2.00000
      2      -6.0230      2.00000
      3      -6.0229      2.00000
      4      -5.8626      2.00000
      5      -5.7983      2.00000
      6      -5.7983      2.00000
      7      -0.5469      2.00000
      8       1.7905      2.00017
      9       1.7906      2.00017
     10       4.1158     -0.00000
     11       7.3021     -0.00000
     12       7.3023     -0.00000
     13       7.4891     -0.00000
     14      10.3592      0.00000
     15      10.5968      0.00000
     16      10.5969      0.00000
     17      12.9664      0.00000
     18      15.2860      0.00000
     19      15.2861      0.00000
     20      17.6381      0.00000
     21      17.7032      0.00000
     22      17.7033      0.00000
     23      18.1441      0.00000
     24      22.2733      0.00000
     25      23.5602      0.00000
     26      23.5602      0.00000
     27      24.1371      0.00000
     28      24.1371      0.00000

 k-point     3 :      -0.0000    0.0000    0.2500
  band No.  band energies     occupation 
      1      -8.7696      2.00000
      2      -6.0230      2.00000
      3      -6.0230      2.00000
      4      -5.8626      2.00000
      5      -5.7983      2.00000
      6      -5.7983      2.00000
      7      -0.5468      2.00000
      8       1.7905      2.00017
      9       1.7906      2.00017
     10       4.1157     -0.00000
     11       7.3021     -0.00000
     12       7.3023     -0.00000
     13       7.4890     -0.00000
     14      10.3591      0.00000
     15      10.5969      0.00000
     16      10.5969      0.00000
     17      12.9664      0.00000
     18      15.2860      0.00000
     19      15.2861      0.00000
     20      17.6379      0.00000
     21      17.7032      0.00000
     22      17.7033      0.00000
     23      18.1442      0.00000
     24      22.2732      0.00000
     25      23.5601      0.00000
     26      23.5602      0.00000
     27      24.1371      0.00000
     28      24.1372      0.00000

 k-point     4 :       0.5000   -0.0000   -0.0000
  band No.  band energies     occupation 
      1      -8.5685      2.00000
      2      -5.9955      2.00000
      3      -5.9955      2.00000
      4      -5.7888      2.00000
      5      -5.7888      2.00000
      6      -5.4478      2.00000
      7      -2.2530      2.00000
      8       1.4409      2.00000
      9       1.4411      2.00000
     10       3.9392     -0.00000
     11       7.3352     -0.00000
     12       7.3355     -0.00000
     13       9.1460      0.00000
     14      10.7388      0.00000
     15      12.4663      0.00000
     16      12.4664      0.00000
     17      13.4946      0.00000
     18      13.7999      0.00000
     19      13.8000      0.00000
     20      18.1097      0.00000
     21      19.5983      0.00000
     22      19.5984      0.00000
     23      20.3149      0.00000
     24      20.6170      0.00000
     25      20.6171      0.00000
     26      22.7189      0.00000
     27      23.4128      0.00000
     28      23.8660      0.00000

 k-point     5 :      -0.0000    0.0000    0.5000
  band No.  band energies     occupation 
      1      -8.5685      2.00000
      2      -5.9955      2.00000
      3      -5.9955      2.00000
      4      -5.7888      2.00000
      5      -5.7888      2.00000
      6      -5.4478      2.00000
      7      -2.2529      2.00000
      8       1.4410      2.00000
      9       1.4412      2.00000
     10       3.9391     -0.00000
     11       7.3352     -0.00000
     12       7.3355     -0.00000
     13       9.1459      0.00000
     14      10.7389      0.00000
     15      12.4663      0.00000
     16      12.4665      0.00000
     17      13.4946      0.00000
     18      13.8000      0.00000
     19      13.8000      0.00000
     20      18.1097      0.00000
     21      19.5982      0.00000
     22      19.5983      0.00000
     23      20.3148      0.00000
     24      20.6171      0.00000
     25      20.6171      0.00000
     26      22.7188      0.00000
     27      23.4127      0.00000
     28      23.8661      0.00000

 k-point     6 :       0.2500    0.2500    0.0000
  band No.  band energies     occupation 
      1      -8.7037      2.00000
      2      -5.9813      2.00000
      3      -5.9812      2.00000
      4      -5.9019      2.00000
      5      -5.7824      2.00000
      6      -5.7709      2.00000
      7      -0.4879      2.00000
      8       1.1232      2.00000
      9       1.1233      2.00000
     10       5.0941     -0.00000
     11       5.4411     -0.00000
     12       8.6271      0.00000
     13       8.6272      0.00000
     14       8.9202      0.00000
     15      12.0841      0.00000
     16      12.7254      0.00000
     17      13.8863      0.00000
     18      13.8864      0.00000
     19      14.3055      0.00000
     20      17.4244      0.00000
     21      17.4244      0.00000
     22      18.2915      0.00000
     23      18.6826      0.00000
     24      19.7514      0.00000
     25      23.2655      0.00000
     26      23.3202      0.00000
     27      23.3204      0.00000
     28      24.1306      0.00000

 k-point     7 :      -0.0000    0.2500    0.2500
  band No.  band energies     occupation 
      1      -8.7037      2.00000
      2      -5.9812      2.00000
      3      -5.9812      2.00000
      4      -5.9019      2.00000
      5      -5.7824      2.00000
      6      -5.7709      2.00000
      7      -0.4879      2.00000
      8       1.1232      2.00000
      9       1.1233      2.00000
     10       5.0941     -0.00000
     11       5.4411     -0.00000
     12       8.6272      0.00000
     13       8.6272      0.00000
     14       8.9202      0.00000
     15      12.0841      0.00000
     16      12.7254      0.00000
     17      13.8864      0.00000
     18      13.8864      0.00000
     19      14.3055      0.00000
     20      17.4244      0.00000
     21      17.4244      0.00000
     22      18.2915      0.00000
     23      18.6826      0.00000
     24      19.7513      0.00000
     25      23.2655      0.00000
     26      23.3203      0.00000
     27      23.3204      0.00000
     28      24.1306      0.00000

 k-point     8 :       0.5000    0.2500    0.0000
  band No.  band energies     occupation 
      1      -8.5078      2.00000
      2      -5.9625      2.00000
      3      -5.9429      2.00000
      4      -5.8395      2.00000
      5      -5.7817      2.00000
      6      -5.3941      2.00000
      7      -1.9017      2.00000
      8       0.1131      2.00000
      9       0.8305      2.00000
     10       5.0990     -0.00000
     11       6.6481     -0.00000
     12       8.2939      0.00000
     13       8.8993      0.00000
     14      11.1330      0.00000
     15      12.6895      0.00000
     16      13.1246      0.00000
     17      13.5823      0.00000
     18      14.2766      0.00000
     19      17.0088      0.00000
     20      17.2934      0.00000
     21      17.7987      0.00000
     22      18.7235      0.00000
     23      18.8096      0.00000
     24      19.5981      0.00000
     25      20.1881      0.00000
     26      22.2044      0.00000
     27      22.6631      0.00000
     28      24.0961      0.00000

 k-point     9 :      -0.0000    0.5000    0.2500
  band No.  band energies     occupation 
      1      -8.5078      2.00000
      2      -5.9625      2.00000
      3      -5.9430      2.00000
      4      -5.8395      2.00000
      5      -5.7817      2.00000
      6      -5.3942      2.00000
      7      -1.9018      2.00000
      8       0.1132      2.00000
      9       0.8305      2.00000
     10       5.0990     -0.00000
     11       6.6481     -0.00000
     12       8.2939      0.00000
     13       8.8995      0.00000
     14      11.1329      0.00000
     15      12.6894      0.00000
     16      13.1246      0.00000
     17      13.5823      0.00000
     18      14.2766      0.00000
     19      17.0088      0.00000
     20      17.2935      0.00000
     21      17.7988      0.00000
     22      18.7235      0.00000
     23      18.8097      0.00000
     24      19.5980      0.00000
     25      20.1881      0.00000
     26      22.2045      0.00000
     27      22.6630      0.00000
     28      24.1012      0.00000

 k-point    10 :       0.2500    0.0000    0.5000
  band No.  band energies     occupation 
      1      -8.5078      2.00000
      2      -5.9625      2.00000
      3      -5.9430      2.00000
      4      -5.8395      2.00000
      5      -5.7817      2.00000
      6      -5.3941      2.00000
      7      -1.9017      2.00000
      8       0.1131      2.00000
      9       0.8305      2.00000
     10       5.0989     -0.00000
     11       6.6482     -0.00000
     12       8.2938      0.00000
     13       8.8994      0.00000
     14      11.1330      0.00000
     15      12.6895      0.00000
     16      13.1246      0.00000
     17      13.5823      0.00000
     18      14.2767      0.00000
     19      17.0088      0.00000
     20      17.2935      0.00000
     21      17.7988      0.00000
     22      18.7235      0.00000
     23      18.8096      0.00000
     24      19.5980      0.00000
     25      20.1881      0.00000
     26      22.2044      0.00000
     27      22.6631      0.00000
     28      24.0989      0.00000

 k-point    11 :       0.2500    0.2500   -0.2500
  band No.  band energies     occupation 
      1      -8.5078      2.00000
      2      -5.9625      2.00000
      3      -5.9430      2.00000
      4      -5.8395      2.00000
      5      -5.7817      2.00000
      6      -5.3941      2.00000
      7      -1.9017      2.00000
      8       0.1132      2.00000
      9       0.8304      2.00000
     10       5.0988     -0.00000
     11       6.6481     -0.00000
     12       8.2939      0.00000
     13       8.8995      0.00000
     14      11.1329      0.00000
     15      12.6894      0.00000
     16      13.1246      0.00000
     17      13.5823      0.00000
     18      14.2767      0.00000
     19      17.0089      0.00000
     20      17.2935      0.00000
     21      17.7988      0.00000
     22      18.7234      0.00000
     23      18.8096      0.00000
     24      19.5980      0.00000
     25      20.1881      0.00000
     26      22.2045      0.00000
     27      22.6631      0.00000
     28      24.1035      0.00000

 k-point    12 :      -0.2500    0.2500   -0.0000
  band No.  band energies     occupation 
      1      -8.5714      2.00000
      2      -5.9785      2.00000
      3      -5.9773      2.00000
      4      -5.8061      2.00000
      5      -5.8055      2.00000
      6      -5.5263      2.00000
      7      -1.5345      2.00000
      8       0.0440      2.00000
      9       1.4086      2.00000
     10       5.2850     -0.00000
     11       7.3382     -0.00000
     12       7.7690     -0.00000
     13       8.0025      0.00000
     14      10.1782      0.00000
     15      11.6472      0.00000
     16      13.2220      0.00000
     17      13.5468      0.00000
     18      14.1464      0.00000
     19      17.2192      0.00000
     20      17.4427      0.00000
     21      17.7403      0.00000
     22      18.5732      0.00000
     23      19.4341      0.00000
     24      20.1867      0.00000
     25      21.6158      0.00000
     26      21.9711      0.00000
     27      22.7261      0.00000
     28      23.6216      0.00000

 k-point    13 :      -0.0000   -0.2500    0.2500
  band No.  band energies     occupation 
      1      -8.5715      2.00000
      2      -5.9786      2.00000
      3      -5.9773      2.00000
      4      -5.8061      2.00000
      5      -5.8055      2.00000
      6      -5.5263      2.00000
      7      -1.5344      2.00000
      8       0.0440      2.00000
      9       1.4085      2.00000
     10       5.2850     -0.00000
     11       7.3381     -0.00000
     12       7.7689     -0.00000
     13       8.0026      0.00000
     14      10.1782      0.00000
     15      11.6473      0.00000
     16      13.2219      0.00000
     17      13.5468      0.00000
     18      14.1464      0.00000
     19      17.2192      0.00000
     20      17.4426      0.00000
     21      17.7403      0.00000
     22      18.5732      0.00000
     23      19.4341      0.00000
     24      20.1866      0.00000
     25      21.6158      0.00000
     26      21.9712      0.00000
     27      22.7261      0.00000
     28      23.6216      0.00000

 k-point    14 :       0.2500    0.2500    0.5000
  band No.  band energies     occupation 
      1      -8.5715      2.00000
      2      -5.9786      2.00000
      3      -5.9773      2.00000
      4      -5.8061      2.00000
      5      -5.8055      2.00000
      6      -5.5263      2.00000
      7      -1.5343      2.00000
      8       0.0440      2.00000
      9       1.4084      2.00000
     10       5.2849     -0.00000
     11       7.3381     -0.00000
     12       7.7689     -0.00000
     13       8.0027      0.00000
     14      10.1782      0.00000
     15      11.6473      0.00000
     16      13.2219      0.00000
     17      13.5468      0.00000
     18      14.1465      0.00000
     19      17.2192      0.00000
     20      17.4427      0.00000
     21      17.7403      0.00000
     22      18.5732      0.00000
     23      19.4340      0.00000
     24      20.1865      0.00000
     25      21.6158      0.00000
     26      21.9713      0.00000
     27      22.7261      0.00000
     28      23.6215      0.00000

 k-point    15 :       0.5000    0.5000    0.0000
  band No.  band energies     occupation 
      1      -8.4453      2.00000
      2      -5.9047      2.00000
      3      -5.8943      2.00000
      4      -5.8942      2.00000
      5      -5.7669      2.00000
      6      -5.3100      2.00000
      7      -2.1318      2.00000
      8       0.3388      2.00000
      9       0.3389      2.00000
     10       4.7002     -0.00000
     11       4.8084     -0.00000
     12      10.9417      0.00000
     13      11.2719      0.00000
     14      11.2721      0.00000
     15      13.0271      0.00000
     16      13.7299      0.00000
     17      13.7300      0.00000
     18      14.1743      0.00000
     19      15.9168      0.00000
     20      17.6297      0.00000
     21      17.8565      0.00000
     22      17.8566      0.00000
     23      18.2510      0.00000
     24      18.3460      0.00000
     25      19.4401      0.00000
     26      19.4402      0.00000
     27      20.7658      0.00000
     28      24.5021      0.00000

 k-point    16 :      -0.0000    0.5000    0.5000
  band No.  band energies     occupation 
      1      -8.4453      2.00000
      2      -5.9047      2.00000
      3      -5.8943      2.00000
      4      -5.8943      2.00000
      5      -5.7669      2.00000
      6      -5.3100      2.00000
      7      -2.1318      2.00000
      8       0.3388      2.00000
      9       0.3388      2.00000
     10       4.7002     -0.00000
     11       4.8084     -0.00000
     12      10.9417      0.00000
     13      11.2720      0.00000
     14      11.2720      0.00000
     15      13.0271      0.00000
     16      13.7299      0.00000
     17      13.7299      0.00000
     18      14.1743      0.00000
     19      15.9168      0.00000
     20      17.6296      0.00000
     21      17.8565      0.00000
     22      17.8565      0.00000
     23      18.2510      0.00000
     24      18.3459      0.00000
     25      19.4401      0.00000
     26      19.4401      0.00000
     27      20.7657      0.00000
     28      24.5022      0.00000

 k-point    17 :      -0.2500    0.5000    0.2500
  band No.  band energies     occupation 
      1      -8.4470      2.00000
      2      -5.9356      2.00000
      3      -5.9308      2.00000
      4      -5.8276      2.00000
      5      -5.7978      2.00000
      6      -5.2263      2.00000
      7      -2.0087      2.00000
      8      -0.1314      2.00000
      9      -0.0077      2.00000
     10       6.4295     -0.00000
     11       6.8015     -0.00000
     12       7.6826     -0.00000
     13       8.4078      0.00000
     14      11.7873      0.00000
     15      13.2894      0.00000
     16      13.4101      0.00000
     17      13.6802      0.00000
     18      15.7543      0.00000
     19      16.9546      0.00000
     20      17.2856      0.00000
     21      17.3674      0.00000
     22      18.0339      0.00000
     23      18.8849      0.00000
     24      19.2233      0.00000
     25      21.3257      0.00000
     26      22.0594      0.00000
     27      22.6049      0.00000
     28      22.6453      0.00000

 k-point    18 :       0.2500   -0.2500    0.5000
  band No.  band energies     occupation 
      1      -8.4470      2.00000
      2      -5.9356      2.00000
      3      -5.9308      2.00000
      4      -5.8276      2.00000
      5      -5.7978      2.00000
      6      -5.2263      2.00000
      7      -2.0087      2.00000
      8      -0.1314      2.00000
      9      -0.0077      2.00000
     10       6.4295     -0.00000
     11       6.8015     -0.00000
     12       7.6826     -0.00000
     13       8.4078      0.00000
     14      11.7873      0.00000
     15      13.2894      0.00000
     16      13.4101      0.00000
     17      13.6802      0.00000
     18      15.7543      0.00000
     19      16.9546      0.00000
     20      17.2856      0.00000
     21      17.3674      0.00000
     22      18.0339      0.00000
     23      18.8849      0.00000
     24      19.2233      0.00000
     25      21.3257      0.00000
     26      22.0594      0.00000
     27      22.6049      0.00000
     28      22.6453      0.00000


--------------------------------------------------------------------------------------------------------


 soft charge-density along one line, spin component           1
         0         1         2         3         4         5         6         7         8         9
 total charge-density along one line
 
 pseudopotential strength for first ion, spin component:           1
-17.943   0.000   0.000  -0.000  -0.000 -17.984   0.000   0.000
  0.000 -17.943  -0.000  -0.000   0.000   0.000 -17.984  -0.000
  0.000  -0.000 -17.945   0.000  -0.000   0.000  -0.000 -17.986
 -0.000  -0.000   0.000 -17.943   0.000  -0.000  -0.000   0.000
 -0.000   0.000  -0.000   0.000 -17.945  -0.000   0.000  -0.000
-17.984   0.000   0.000  -0.000  -0.000 -18.005   0.000   0.000
  0.000 -17.984  -0.000  -0.000   0.000   0.000 -18.005  -0.000
  0.000  -0.000 -17.986   0.000  -0.000   0.000  -0.000 -18.007
 -0.000  -0.000   0.000 -17.984   0.000  -0.000  -0.000   0.000
 -0.000   0.000  -0.000   0.000 -17.986  -0.000   0.000  -0.000
 -0.000   0.000   0.000  -0.000  -0.000  -0.000   0.000   0.000
 -0.000   0.000   0.000  -0.000  -0.000  -0.000   0.000   0.000
  0.000  -0.000  -0.000   0.003  -0.000   0.000  -0.000  -0.000
  0.003   0.000  -0.000   0.000  -0.000   0.003   0.000  -0.000
  0.000   0.003  -0.000  -0.000   0.000   0.000   0.003  -0.000
  0.000  -0.000  -0.000   0.003  -0.000   0.000  -0.000  -0.000
  0.003   0.000  -0.000   0.000  -0.000   0.002   0.000  -0.000
  0.000   0.003  -0.000  -0.000   0.000   0.000   0.002  -0.000
 total augmentation occupancy for first ion, spin component:           1
  4.120   0.000   0.000  -0.000  -0.000  -2.064  -0.000  -0.000   0.000   0.000   0.000  -0.000  -0.000   0.535  -0.000   0.000
  0.000   4.120   0.000  -0.000   0.000  -0.000  -2.064  -0.000   0.000  -0.000   0.000  -0.000  -0.000   0.000   0.535   0.000
  0.000   0.000   2.516   0.000  -0.000  -0.000  -0.000  -0.523  -0.000   0.000   0.000  -0.000   0.000   0.000   0.000  -0.000
 -0.000  -0.000   0.000   4.120  -0.000   0.000   0.000  -0.000  -2.064   0.000   0.000  -0.000   0.535   0.000  -0.000  -0.072
 -0.000   0.000  -0.000  -0.000   2.516   0.000  -0.000   0.000   0.000  -0.523  -0.000   0.000  -0.000  -0.000   0.000   0.000
 -2.064  -0.000  -0.000   0.000   0.000   2.004   0.000   0.000  -0.000  -0.000  -0.000   0.000   0.000  -0.511   0.000  -0.000
 -0.000  -2.064  -0.000   0.000  -0.000   0.000   2.004   0.000  -0.000   0.000  -0.000   0.000   0.000  -0.000  -0.511  -0.000
 -0.000  -0.000  -0.523  -0.000   0.000   0.000   0.000   0.523   0.000  -0.000  -0.000   0.000  -0.000  -0.000  -0.000   0.000
  0.000   0.000  -0.000  -2.064   0.000  -0.000  -0.000   0.000   2.004  -0.000  -0.000   0.000  -0.511  -0.000   0.000   0.083
  0.000  -0.000   0.000   0.000  -0.523  -0.000   0.000  -0.000  -0.000   0.523   0.000  -0.000   0.000   0.000  -0.000  -0.000
  0.000   0.000   0.000   0.000  -0.000  -0.000  -0.000  -0.000  -0.000   0.000   2.812  -0.704  -0.000   0.000  -0.000   0.000
 -0.000  -0.000  -0.000  -0.000   0.000   0.000   0.000   0.000   0.000  -0.000  -0.704   0.213   0.000  -0.000   0.000  -0.000
 -0.000  -0.000   0.000   0.535  -0.000   0.000   0.000  -0.000  -0.511   0.000  -0.000   0.000   0.207  -0.000  -0.000  -0.034
  0.535   0.000   0.000   0.000  -0.000  -0.511  -0.000  -0.000  -0.000   0.000   0.000  -0.000  -0.000   0.207   0.000   0.000
 -0.000   0.535   0.000  -0.000   0.000   0.000  -0.511  -0.000   0.000  -0.000  -0.000   0.000  -0.000   0.000   0.207   0.000
  0.000   0.000  -0.000  -0.072   0.000  -0.000  -0.000   0.000   0.083  -0.000   0.000  -0.000  -0.034   0.000   0.000   0.007
 -0.072  -0.000  -0.000  -0.000   0.000   0.083   0.000   0.000   0.000  -0.000  -0.000   0.000   0.000  -0.034  -0.000  -0.000
  0.000  -0.072  -0.000   0.000  -0.000  -0.000   0.083   0.000  -0.000   0.000   0.000  -0.000   0.000  -0.000  -0.034  -0.000


------------------------ aborting loop because EDIFF is reached ----------------------------------------


    CHARGE:  cpu time    0.0513: real time    0.0512
    FORLOC:  cpu time    0.0010: real time    0.0010
    FORNL :  cpu time    0.1361: real time    0.1360
    STRESS:  cpu time    0.7609: real time    0.7603
    FORCOR:  cpu time    0.0094: real time    0.0100
    FORHAR:  cpu time    0.0020: real time    0.0020
    MIXING:  cpu time    0.0006: real time    0.0006
    OFIELD:  cpu time    0.0000: real time    0.0000

  FORCE on cell =-STRESS in cart. coord.  units (eV):
  Direction    XX          YY          ZZ          XY          YZ          ZX
  --------------------------------------------------------------------------------------
[...]
      8       0.0546      2.00000
      9       0.7610      2.00000
     10       4.9992     -0.00000
     11       6.5369     -0.00000
     12       8.1876      0.00000
     13       8.7864      0.00000
     14      10.9905      0.00000
     15      12.5629      0.00000
     16      13.0030      0.00000
     17      13.4267      0.00000
     18      14.1389      0.00000
     19      16.8535      0.00000
     20      17.1515      0.00000
     21      17.6173      0.00000
     22      18.5700      0.00000
     23      18.6550      0.00000
     24      19.4309      0.00000
     25      20.0010      0.00000
     26      22.0230      0.00000
     27      22.4855      0.00000
     28      23.8887      0.00000

 k-point    10 :       0.2500    0.0000    0.5000
  band No.  band energies     occupation 
      1      -8.5555      2.00000
      2      -6.0258      2.00000
      3      -6.0072      2.00000
      4      -5.9062      2.00000
      5      -5.8507      2.00000
      6      -5.4720      2.00000
      7      -1.9490      2.00000
      8       0.0545      2.00000
      9       0.7610      2.00000
     10       4.9991     -0.00000
     11       6.5368     -0.00000
     12       8.1874      0.00000
     13       8.7863      0.00000
     14      10.9907      0.00000
     15      12.5630      0.00000
     16      13.0028      0.00000
     17      13.4269      0.00000
     18      14.1390      0.00000
     19      16.8537      0.00000
     20      17.1516      0.00000
     21      17.6171      0.00000
     22      18.5703      0.00000
     23      18.6548      0.00000
     24      19.4312      0.00000
     25      20.0009      0.00000
     26      22.0229      0.00000
     27      22.4854      0.00000
     28      23.8889      0.00000

 k-point    11 :       0.2500    0.2500   -0.2500
  band No.  band energies     occupation 
      1      -8.5555      2.00000
      2      -6.0258      2.00000
      3      -6.0072      2.00000
      4      -5.9062      2.00000
      5      -5.8507      2.00000
      6      -5.4720      2.00000
      7      -1.9490      2.00000
      8       0.0546      2.00000
      9       0.7609      2.00000
     10       4.9990     -0.00000
     11       6.5370     -0.00000
     12       8.1875      0.00000
     13       8.7864      0.00000
     14      10.9906      0.00000
     15      12.5629      0.00000
     16      13.0029      0.00000
     17      13.4267      0.00000
     18      14.1389      0.00000
     19      16.8536      0.00000
     20      17.1516      0.00000
     21      17.6174      0.00000
     22      18.5702      0.00000
     23      18.6549      0.00000
     24      19.4311      0.00000
     25      20.0011      0.00000
     26      22.0230      0.00000
     27      22.4854      0.00000
     28      23.8890      0.00000

 k-point    12 :      -0.2500    0.2500   -0.0000
  band No.  band energies     occupation 
      1      -8.6176      2.00000
      2      -6.0417      2.00000
      3      -6.0402      2.00000
      4      -5.8742      2.00000
      5      -5.8735      2.00000
      6      -5.5995      2.00000
      7      -1.5899      2.00000
      8      -0.0121      2.00000
      9       1.3279      2.00000
     10       5.1663     -0.00000
     11       7.2377     -0.00000
     12       7.6538     -0.00000
     13       7.8985      0.00000
     14      10.0762      0.00000
     15      11.5162      0.00000
     16      13.0930      0.00000
     17      13.4092      0.00000
     18      14.0150      0.00000
     19      17.0641      0.00000
     20      17.2600      0.00000
     21      17.5783      0.00000
     22      18.4253      0.00000
     23      19.2704      0.00000
     24      19.9936      0.00000
     25      21.4409      0.00000
     26      21.8046      0.00000
     27      22.5363      0.00000
     28      23.4227      0.00000

 k-point    13 :      -0.0000   -0.2500    0.2500
  band No.  band energies     occupation 
      1      -8.6175      2.00000
      2      -6.0417      2.00000
      3      -6.0402      2.00000
      4      -5.8742      2.00000
      5      -5.8735      2.00000
      6      -5.5994      2.00000
      7      -1.5899      2.00000
      8      -0.0121      2.00000
      9       1.3279      2.00000
     10       5.1663     -0.00000
     11       7.2377     -0.00000
     12       7.6538     -0.00000
     13       7.8985      0.00000
     14      10.0761      0.00000
     15      11.5164      0.00000
     16      13.0930      0.00000
     17      13.4093      0.00000
     18      14.0150      0.00000
     19      17.0643      0.00000
     20      17.2600      0.00000
     21      17.5782      0.00000
     22      18.4253      0.00000
     23      19.2705      0.00000
     24      19.9935      0.00000
     25      21.4410      0.00000
     26      21.8047      0.00000
     27      22.5364      0.00000
     28      23.4228      0.00000

 k-point    14 :       0.2500    0.2500    0.5000
  band No.  band energies     occupation 
      1      -8.6175      2.00000
      2      -6.0417      2.00000
      3      -6.0402      2.00000
      4      -5.8742      2.00000
      5      -5.8735      2.00000
      6      -5.5994      2.00000
      7      -1.5898      2.00000
      8      -0.0121      2.00000
      9       1.3278      2.00000
     10       5.1661     -0.00000
     11       7.2376     -0.00000
     12       7.6537     -0.00000
     13       7.8985      0.00000
     14      10.0760      0.00000
     15      11.5166      0.00000
     16      13.0930      0.00000
     17      13.4095      0.00000
     18      14.0151      0.00000
     19      17.0646      0.00000
     20      17.2599      0.00000
     21      17.5782      0.00000
     22      18.4253      0.00000
     23      19.2705      0.00000
     24      19.9934      0.00000
     25      21.4412      0.00000
     26      21.8048      0.00000
     27      22.5365      0.00000
     28      23.4228      0.00000

 k-point    15 :       0.5000    0.5000    0.0000
  band No.  band energies     occupation 
      1      -8.4946      2.00000
      2      -5.9684      2.00000
      3      -5.9602      2.00000
      4      -5.9602      2.00000
      5      -5.8363      2.00000
      6      -5.3908      2.00000
      7      -2.1769      2.00000
      8       0.2782      2.00000
      9       0.2784      2.00000
     10       4.6271     -0.00000
     11       4.7134     -0.00000
     12      10.7856      0.00000
     13      11.1194      0.00000
     14      11.1194      0.00000
     15      12.9107      0.00000
     16      13.5961      0.00000
     17      13.5962      0.00000
     18      13.9955      0.00000
     19      15.7796      0.00000
     20      17.4752      0.00000
     21      17.7206      0.00000
     22      17.7207      0.00000
     23      18.1071      0.00000
     24      18.1887      0.00000
     25      19.2750      0.00000
     26      19.2751      0.00000
     27      20.5679      0.00000
     28      24.3032      0.00000

 k-point    16 :      -0.0000    0.5000    0.5000
  band No.  band energies     occupation 
      1      -8.4946      2.00000
      2      -5.9684      2.00000
      3      -5.9602      2.00000
      4      -5.9602      2.00000
      5      -5.8363      2.00000
      6      -5.3908      2.00000
      7      -2.1769      2.00000
      8       0.2783      2.00000
      9       0.2783      2.00000
     10       4.6271     -0.00000
     11       4.7135     -0.00000
     12      10.7856      0.00000
     13      11.1194      0.00000
     14      11.1194      0.00000
     15      12.9107      0.00000
     16      13.5962      0.00000
     17      13.5962      0.00000
     18      13.9955      0.00000
     19      15.7796      0.00000
     20      17.4752      0.00000
     21      17.7206      0.00000
     22      17.7206      0.00000
     23      18.1071      0.00000
     24      18.1887      0.00000
     25      19.2750      0.00000
     26      19.2750      0.00000
     27      20.5679      0.00000
     28      24.3032      0.00000

 k-point    17 :      -0.2500    0.5000    0.2500
  band No.  band energies     occupation 
      1      -8.4962      2.00000
      2      -6.0003      2.00000
      3      -5.9948      2.00000
      4      -5.8951      2.00000
      5      -5.8660      2.00000
      6      -5.3106      2.00000
      7      -2.0544      2.00000
      8      -0.1857      2.00000
      9      -0.0593      2.00000
     10       6.2941     -0.00000
     11       6.7071     -0.00000
     12       7.5719     -0.00000
     13       8.3160      0.00000
     14      11.6259      0.00000
     15      13.1446      0.00000
     16      13.2738      0.00000
     17      13.5370      0.00000
     18      15.6258      0.00000
     19      16.8097      0.00000
     20      17.1406      0.00000
     21      17.2240      0.00000
     22      17.8377      0.00000
     23      18.7220      0.00000
     24      19.0540      0.00000
     25      21.1195      0.00000
     26      21.8973      0.00000
     27      22.4262      0.00000
     28      22.4471      0.00000

 k-point    18 :       0.2500   -0.2500    0.5000
  band No.  band energies     occupation 
      1      -8.4962      2.00000
      2      -6.0003      2.00000
      3      -5.9948      2.00000
      4      -5.8951      2.00000
      5      -5.8660      2.00000
      6      -5.3106      2.00000
      7      -2.0544      2.00000
      8      -0.1857      2.00000
      9      -0.0593      2.00000
     10       6.2941     -0.00000
     11       6.7071     -0.00000
     12       7.5719     -0.00000
     13       8.3160      0.00000
     14      11.6259      0.00000
     15      13.1446      0.00000
     16      13.2738      0.00000
     17      13.5370      0.00000
     18      15.6258      0.00000
     19      16.8097      0.00000
     20      17.1406      0.00000
     21      17.2240      0.00000
     22      17.8377      0.00000
     23      18.7220      0.00000
     24      19.0540      0.00000
     25      21.1195      0.00000
     26      21.8973      0.00000
     27      22.4262      0.00000
     28      22.4471      0.00000


--------------------------------------------------------------------------------------------------------


 soft charge-density along one line, spin component           1
         0         1         2         3         4         5         6         7         8         9
 total charge-density along one line
 
 pseudopotential strength for first ion, spin component:           1
-17.985   0.000   0.000  -0.000  -0.000 -18.025   0.000   0.000
  0.000 -17.985  -0.000  -0.000   0.000   0.000 -18.025  -0.000
  0.000  -0.000 -17.987   0.000  -0.000   0.000  -0.000 -18.027
 -0.000  -0.000   0.000 -17.985   0.000  -0.000  -0.000   0.000
 -0.000   0.000  -0.000   0.000 -17.987  -0.000   0.000  -0.000
-18.025   0.000   0.000  -0.000  -0.000 -18.045   0.000   0.000
  0.000 -18.025  -0.000  -0.000   0.000   0.000 -18.045  -0.000
  0.000  -0.000 -18.027   0.000  -0.000   0.000  -0.000 -18.047
 -0.000  -0.000   0.000 -18.025   0.000  -0.000  -0.000   0.000
 -0.000   0.000  -0.000   0.000 -18.027  -0.000   0.000  -0.000
 -0.000   0.000   0.000  -0.000  -0.000  -0.000   0.000   0.000
 -0.000   0.000   0.000  -0.000  -0.000  -0.000   0.000   0.000
  0.000   0.000  -0.000   0.003  -0.000   0.000   0.000  -0.000
  0.003   0.000   0.000   0.000  -0.000   0.003   0.000   0.000
  0.000   0.003  -0.000   0.000   0.000   0.000   0.003  -0.000
  0.000   0.000  -0.000   0.003  -0.000   0.000   0.000  -0.000
  0.003   0.000   0.000   0.000  -0.000   0.003   0.000   0.000
  0.000   0.003  -0.000   0.000   0.000   0.000   0.003  -0.000
 total augmentation occupancy for first ion, spin component:           1
  4.074   0.000   0.000  -0.000  -0.000  -2.015  -0.000  -0.000   0.000   0.000   0.000  -0.000  -0.000   0.523  -0.000   0.000
  0.000   4.074   0.000   0.000   0.000  -0.000  -2.015  -0.000  -0.000  -0.000   0.000  -0.000  -0.000   0.000   0.523   0.000
  0.000   0.000   2.507   0.000  -0.000  -0.000  -0.000  -0.510  -0.000   0.000   0.000  -0.000   0.000   0.000   0.000  -0.000
 -0.000   0.000   0.000   4.074  -0.000   0.000  -0.000  -0.000  -2.015   0.000   0.000  -0.000   0.523   0.000  -0.000  -0.070
 -0.000   0.000  -0.000  -0.000   2.507   0.000  -0.000   0.000   0.000  -0.510  -0.000   0.000  -0.000  -0.000   0.000   0.000
 -2.015  -0.000  -0.000   0.000   0.000   1.952   0.000   0.000  -0.000  -0.000  -0.000   0.000   0.000  -0.500   0.000  -0.000
 -0.000  -2.015  -0.000  -0.000  -0.000   0.000   1.952   0.000   0.000   0.000  -0.000   0.000   0.000  -0.000  -0.500  -0.000
 -0.000  -0.000  -0.510  -0.000   0.000   0.000   0.000   0.507   0.000  -0.000  -0.000   0.000  -0.000  -0.000  -0.000   0.000
  0.000  -0.000  -0.000  -2.015   0.000  -0.000   0.000   0.000   1.952  -0.000  -0.000   0.000  -0.500  -0.000   0.000   0.081
  0.000  -0.000   0.000   0.000  -0.510  -0.000   0.000  -0.000  -0.000   0.507   0.000  -0.000   0.000   0.000  -0.000  -0.000
  0.000   0.000   0.000   0.000  -0.000  -0.000  -0.000  -0.000  -0.000   0.000   2.773  -0.687   0.000  -0.000   0.000  -0.000
 -0.000  -0.000  -0.000  -0.000   0.000   0.000   0.000   0.000   0.000  -0.000  -0.687   0.207  -0.000   0.000  -0.000   0.000
 -0.000  -0.000   0.000   0.523  -0.000   0.000   0.000  -0.000  -0.500   0.000   0.000  -0.000   0.203  -0.000  -0.000  -0.033
  0.523   0.000   0.000   0.000  -0.000  -0.500  -0.000  -0.000  -0.000   0.000  -0.000   0.000  -0.000   0.203   0.000   0.000
 -0.000   0.523   0.000  -0.000   0.000   0.000  -0.500  -0.000   0.000  -0.000   0.000  -0.000  -0.000   0.000   0.203   0.000
  0.000   0.000  -0.000  -0.070   0.000  -0.000  -0.000   0.000   0.081  -0.000  -0.000   0.000  -0.033   0.000   0.000   0.007
 -0.070  -0.000  -0.000  -0.000   0.000   0.081   0.000   0.000   0.000  -0.000   0.000  -0.000   0.000  -0.033  -0.000  -0.000
  0.000  -0.070  -0.000   0.000  -0.000  -0.000   0.081   0.000  -0.000   0.000  -0.000   0.000   0.000  -0.000  -0.033  -0.000


------------------------ aborting loop because EDIFF is reached ----------------------------------------


    CHARGE:  cpu time    0.0604: real time    0.0604
    FORLOC:  cpu time    0.0010: real time    0.0010
    FORNL :  cpu time    0.1331: real time    0.1330
    STRESS:  cpu time    0.7547: real time    0.7541
    FORCOR:  cpu time    0.0087: real time    0.0087
    FORHAR:  cpu time    0.0020: real time    0.0020
    MIXING:  cpu time    0.0005: real time    0.0005
    OFIELD:  cpu time    0.0000: real time    0.0000

  FORCE on cell =-STRESS in cart. coord.  units (eV):
  Direction    XX          YY          ZZ          XY          YZ          ZX
  --------------------------------------------------------------------------------------
  Alpha Z    49.58843    49.58843    49.58843
  Ewald    -346.92076  -346.92131  -346.92141    -0.00255    -0.00109    -0.00004
  Hartree   168.24405   168.24365   168.24367    -0.00022    -0.00005    -0.00000
  E(xc)     -86.27528   -86.27526   -86.27527    -0.00001     0.00000    -0.00000
  Local     -19.32566   -19.32439   -19.32447     0.00252     0.00095     0.00004
  n-local    24.66821    26.47245    25.57033    -0.00001     1.36542     1.38736
  augment     6.27370     6.27360     6.27365    -0.00003    -0.00000    -0.00000
  Kinetic   202.20855   203.48163   202.84511     0.00035     1.31601     1.52883
  Fock        0.00000     0.00000     0.00000     0.00000     0.00000     0.00000
  -------------------------------------------------------------------------------------
  Total       0.00002     0.00002     0.00002     0.00007     0.00000     0.00000
  in kB       0.00046     0.00046     0.00052     0.00155     0.00000     0.00000
  external pressure =        0.00 kB  Pullay stress =        0.00 kB


 VOLUME and BASIS-vectors are now :
 -----------------------------------------------------------------------------
  energy-cutoff  :      600.00
  volume of cell :       68.91
      direct lattice vectors                 reciprocal lattice vectors
    -0.000034167  3.254017257  3.254018618    -0.153654705  0.153654628  0.153656139
     3.254021028 -0.000030187  3.254020851     0.153654450 -0.153654673  0.153656222
     3.253992130  3.253990581  0.000003177     0.153657390  0.153657651 -0.153655973

  length of vectors
     4.601876300  4.601880545  4.601838707     0.266138540  0.266138466  0.266141739


 FORCES acting on ions
    electron-ion (+dipol)            ewald-force                    non-local-force                 convergence-correction
 -----------------------------------------------------------------------------------------------
   -.101E-02 -.217E-04 -.241E-02   -.219E-03 -.135E-04 0.219E-02   -.129E-09 -.861E-10 0.159E-03   0.369E-09 0.118E-10 0.635E-06
   0.712E-03 0.119E-04 0.222E-02   0.219E-03 0.135E-04 -.219E-02   -.292E-10 -.195E-10 0.361E-04   -.158E-10 -.601E-11 -.569E-07
 -----------------------------------------------------------------------------------------------
   -.294E-03 -.978E-05 -.181E-03   -.501E-15 -.682E-15 0.883E-15   -.158E-09 -.106E-09 0.196E-03   0.353E-09 0.579E-11 0.578E-06
 
 
 POSITION                                       TOTAL-FORCE (eV/Angst)
 -----------------------------------------------------------------------------------
      3.25399      3.25399      0.00002         0.000000      0.000000     -0.000066
      4.88098      4.88098      4.88101        -0.000000     -0.000000      0.000066
 -----------------------------------------------------------------------------------
    total drift:                               -0.000294     -0.000010      0.000015


--------------------------------------------------------------------------------------------------------



  FREE ENERGIE OF THE ION-ELECTRON SYSTEM (eV)
  ---------------------------------------------------
  free  energy   TOTEN  =        -5.42251459 eV

  energy  without entropy=       -5.42316307  energy(sigma->0) =       -5.42273075
 
 d Force = 0.3506495E-09[ 0.340E-09, 0.361E-09]  d Energy = 0.9310498E-04-0.931E-04
 d Force =-0.1260399E-07[-0.113E-07,-0.139E-07]  d Ewald  = 0.1108792E+01-0.111E+01


--------------------------------------------------------------------------------------------------------


    POTLOK:  cpu time    0.0314: real time    0.0314


--------------------------------------------------------------------------------------------------------


 Quasi-Newton relaxation of ions (Broydens 2nd method)
  g(Force)  = 0.415E-09   g(Stress)= 0.245E-09

 retain information from N=  1 steps
 eigenvalues of (default step * inverse Hessian matrix)
  average eigenvalue of G=   0.7710
 eigenvalue spectrum of G is  0.7710


--------------------------------------------------------------------------------------------------------


  
 reached required accuracy - stopping structural energy minimisation
     LOOP+:  cpu time    4.6403: real time    4.6438
    4ORBIT:  cpu time    0.0000: real time    0.0000

 total amount of memory used by VASP MPI-rank0    49442. kBytes
=======================================================================

   base      :      30000. kBytes
   nonl-proj :      11975. kBytes
   fftplans  :       3079. kBytes
   grid      :       3680. kBytes
   one-center:         31. kBytes
   wavefun   :        677. kBytes
 
  
  
 General timing and accounting informations for this job:
 ========================================================
  
                  Total CPU time used (sec):       18.017
                            User time (sec):       17.520
                          System time (sec):        0.497
                         Elapsed time (sec):       18.299
  
                   Maximum memory used (kb):      273076.
                   Average memory used (kb):           0.
  
                          Minor page faults:        53618
                          Major page faults:           95
                 Voluntary context switches:          965
