<?xml version="1.0" encoding="ISO-8859-1"?>
<modeling>
 <generator>
  <i name="program" type="string">vasp </i>
  <i name="version" type="string">6.1.2  </i>
  <i name="subversion" type="string">22Jul20 (build Dec 07 2020 09:43:49) complex                          parallel </i>
  <i name="platform" type="string">LinuxIFC </i>
  <i name="date" type="string">2023 08 19 </i>
  <i name="time" type="string">19:46:40 </i>
 </generator>
 <incar>
  <i type="string" name="PREC"> Accurate</i>
  <i type="logical" name="ADDGRID"> T  </i>
  <i type="int" name="NELMIN">     5</i>
  <i type="int" name="IBRION">     1</i>
  <i name="EDIFF">      0.00000001</i>
  <i name="EDIFFG">     -0.00500000</i>
  <i type="int" name="NSW">   100</i>
  <i type="int" name="ISIF">     3</i>
  <i name="ENCUT">    600.00000000</i>
  <i type="logical" name="LWAVE"> F  </i>
  <i type="logical" name="LCHARG"> F  </i>
  <i type="string" name="GGA"> PS</i>
  <i name="EDIFF">      0.00000001</i>
 </incar>
 <structure name="primitive_cell" >
  <crystal>
   <varray name="basis" >
    <v>      -0.00000170       3.24229352       3.24229440 </v>
    <v>       3.24229724       0.00000227       3.24229662 </v>
    <v>       3.24230079       3.24229928       0.00000317 </v>
   </varray>
   <i name="volume">     68.16918762 </i>
   <varray name="rec_basis" >
    <v>      -0.15421184       0.15421176       0.15421176 </v>
    <v>       0.15421159      -0.15421181       0.15421185 </v>
    <v>       0.15421146       0.15421172      -0.15421160 </v>
   </varray>
  </crystal>
  <varray name="positions" >
   <v>       0.00000557       0.00000632       0.99999445 </v>
   <v>       0.74999443       0.74999368       0.75000555 </v>
  </varray>
 </structure>
 <varray name="primitive_index" >
  <v type="int" >        1 </v>
  <v type="int" >        2 </v>
 </varray>
 <kpoints>
  <generation param="Gamma">
   <v type="int" name="divisions">       4        4        4 </v>
   <v name="usershift">      0.00000000       0.00000000       0.00000000 </v>
   <v name="genvec1">      0.25000000       0.00000000       0.00000000 </v>
   <v name="genvec2">      0.00000000       0.25000000       0.00000000 </v>
   <v name="genvec3">      0.00000000       0.00000000       0.25000000 </v>
   <v name="shift">      0.00000000       0.00000000       0.00000000 </v>
  </generation>
  <varray name="kpointlist" >
   <v>       0.00000000       0.00000000       0.00000000 </v>
   <v>       0.25000000      -0.00000000      -0.00000000 </v>
   <v>      -0.00000000       0.00000000       0.25000000 </v>
   <v>       0.50000000      -0.00000000      -0.00000000 </v>
   <v>      -0.00000000       0.00000000       0.50000000 </v>
   <v>       0.25000000       0.25000000       0.00000000 </v>
   <v>      -0.00000000       0.25000000       0.25000000 </v>
   <v>       0.50000000       0.25000000       0.00000000 </v>
   <v>      -0.00000000       0.50000000       0.25000000 </v>
   <v>       0.25000000       0.00000000       0.50000000 </v>
   <v>       0.25000000       0.25000000      -0.25000000 </v>
   <v>      -0.25000000       0.25000000      -0.00000000 </v>
   <v>      -0.00000000      -0.25000000       0.25000000 </v>
   <v>       0.25000000       0.25000000       0.50000000 </v>
   <v>       0.50000000       0.50000000       0.00000000 </v>
   <v>      -0.00000000       0.50000000       0.50000000 </v>
   <v>      -0.25000000       0.50000000       0.25000000 </v>
   <v>       0.25000000      -0.25000000       0.50000000 </v>
  </varray>
  <varray name="weights" >
   <v>       0.01562500 </v>
   <v>       0.06250000 </v>
   <v>       0.06250000 </v>
   <v>       0.03125000 </v>
   <v>       0.03125000 </v>
   <v>       0.03125000 </v>
   <v>       0.06250000 </v>
   <v>       0.06250000 </v>
   <v>       0.12500000 </v>
   <v>       0.12500000 </v>
   <v>       0.06250000 </v>
   <v>       0.03125000 </v>
   <v>       0.12500000 </v>
   <v>       0.03125000 </v>
   <v>       0.01562500 </v>
   <v>       0.03125000 </v>
   <v>       0.06250000 </v>
   <v>       0.03125000 </v>
  </varray>
 </kpoints>
 <parameters>
  <separator name="general" >
   <i type="string" name="SYSTEM">unknown system</i>
   <i type="logical" name="LCOMPAT"> F  </i>
  </separator>
  <separator name="electronic" >
   <i type="string" name="PREC">accura</i>
   <i name="ENMAX">    600.00000000</i>
   <i name="ENAUG">    456.10600000</i>
   <i name="EDIFF">      0.00000001</i>
   <i type="int" name="IALGO">    38</i>
   <i type="int" name="IWAVPR">    11</i>
   <i type="int" name="NBANDS">    28</i>
   <i type="int" name="NBANDSLOW">    -1</i>
   <i type="int" name="NBANDSHIGH">    -1</i>
   <i name="NELECT">     18.00000000</i>
   <i type="int" name="TURBO">     0</i>
   <i type="int" name="IRESTART">     0</i>
   <i type="int" name="NREBOOT">     0</i>
   <i type="int" name="NMIN">     0</i>
   <i name="EREF">      0.00000000</i>
   <separator name="electronic smearing" >
    <i type="int" name="ISMEAR">     1</i>
    <i name="SIGMA">      0.20000000</i>
    <i name="KSPACING">      0.50000000</i>
    <i type="logical" name="KGAMMA"> T  </i>
    <i type="logical" name="KBLOWUP"> T  </i>
   </separator>
   <separator name="electronic projectors" >
    <i type="logical" name="LREAL"> F  </i>
    <v name="ROPT">      0.00000000      0.00000000</v>
    <i type="int" name="LMAXPAW">  -100</i>
    <i type="int" name="LMAXMIX">     2</i>
    <i type="logical" name="NLSPLINE"> F  </i>
   </separator>
   <separator name="electronic startup" >
    <i type="int" name="ISTART">     0</i>
    <i type="int" name="ICHARG">     2</i>
    <i type="int" name="INIWAV">     1</i>
   </separator>
   <separator name="electronic spin" >
    <i type="int" name="ISPIN">     1</i>
    <i type="logical" name="LNONCOLLINEAR"> F  </i>
    <v name="MAGMOM">      1.00000000      1.00000000</v>
    <i name="NUPDOWN">     -1.00000000</i>
    <i type="logical" name="LSORBIT"> F  </i>
    <v name="SAXIS">      0.00000000      0.00000000      1.00000000</v>
    <i type="logical" name="LSPIRAL"> F  </i>
    <v name="QSPIRAL">      0.00000000      0.00000000      0.00000000</v>
    <i type="logical" name="LZEROZ"> F  </i>
   </separator>
   <separator name="electronic exchange-correlation" >
    <i type="logical" name="LASPH"> F  </i>
    <i type="logical" name="LMETAGGA"> F  </i>
   </separator>
   <separator name="electronic convergence" >
    <i type="int" name="NELM">    60</i>
    <i type="int" name="NELMDL">     0</i>
    <i type="int" name="NELMIN">     5</i>
    <i name="ENINI">    600.00000000</i>
    <separator name="electronic convergence detail" >
     <i type="logical" name="LDIAG"> T  </i>
     <i type="logical" name="LSUBROT"> F  </i>
     <i name="WEIMIN">      0.00100000</i>
     <i name="EBREAK">      0.00000000</i>
     <i name="DEPER">      0.30000000</i>
     <i type="int" name="NRMM">     4</i>
     <i name="TIME">      0.40000000</i>
    </separator>
   </separator>
   <separator name="electronic mixer" >
    <i name="AMIX">      0.40000000</i>
    <i name="BMIX">      1.00000000</i>
    <i name="AMIN">      0.10000000</i>
    <i name="AMIX_MAG">      1.60000000</i>
    <i name="BMIX_MAG">      1.00000000</i>
    <separator name="electronic mixer details" >
     <i type="int" name="IMIX">     4</i>
     <i type="logical" name="MIXFIRST"> F  </i>
     <i type="int" name="MAXMIX">   -45</i>
     <i name="WC">    100.00000000</i>
     <i type="int" name="INIMIX">     1</i>
     <i type="int" name="MIXPRE">     1</i>
     <i type="int" name="MREMOVE">     5</i>
    </separator>
   </separator>
   <separator name="electronic dipolcorrection" >
    <i type="logical" name="LDIPOL"> F  </i>
    <i type="logical" name="LMONO"> F  </i>
    <i type="int" name="IDIPOL">     0</i>
    <i name="EPSILON">      1.00000000</i>
    <v name="DIPOL">   -100.00000000   -100.00000000   -100.00000000</v>
    <i name="EFIELD">      0.00000000</i>
   </separator>
  </separator>
  <separator name="grids" >
   <i type="int" name="NGX">    40</i>
   <i type="int" name="NGY">    40</i>
   <i type="int" name="NGZ">    40</i>
   <i type="int" name="NGXF">    80</i>
   <i type="int" name="NGYF">    80</i>
   <i type="int" name="NGZF">    80</i>
   <i type="logical" name="ADDGRID"> T  </i>
  </separator>
  <separator name="ionic" >
   <i type="int" name="NSW">   100</i>
   <i type="int" name="IBRION">     1</i>
   <i type="int" name="MDALGO">     0</i>
   <i type="int" name="ISIF">     3</i>
   <i name="PSTRESS">      0.00000000</i>
   <i name="EDIFFG">     -0.00500000</i>
   <i type="int" name="NFREE">     0</i>
   <i name="POTIM">      0.50000000</i>
   <i name="SMASS">     -3.00000000</i>
   <i name="SCALEE">      1.00000000</i>
  </separator>
  <separator name="ionic md" >
   <i name="TEBEG">      0.00010000</i>
   <i name="TEEND">      0.00010000</i>
   <i type="int" name="NBLOCK">     1</i>
   <i type="int" name="KBLOCK">   100</i>
   <i type="int" name="NPACO">   256</i>
   <i name="APACO">     16.00000000</i>
  </separator>
  <separator name="symmetry" >
   <i type="int" name="ISYM">     2</i>
   <i name="SYMPREC">      0.00001000</i>
  </separator>
  <separator name="dos" >
   <i type="int" name="LORBIT">     0</i>
   <v name="RWIGS">     -1.00000000     -1.00000000</v>
   <i type="int" name="NEDOS">   301</i>
   <i name="EMIN">     10.00000000</i>
   <i name="EMAX">    -10.00000000</i>
   <i name="EFERMI">      0.00000000</i>
  </separator>
  <separator name="writing" >
   <i type="int" name="NWRITE">     2</i>
   <i type="logical" name="LWAVE"> F  </i>
   <i type="logical" name="LDOWNSAMPLE"> F  </i>
   <i type="logical" name="LCHARG"> F  </i>
   <i type="logical" name="LPARD"> F  </i>
   <i type="logical" name="LVTOT"> F  </i>
   <i type="logical" name="LVHAR"> F  </i>
   <i type="logical" name="LELF"> F  </i>
   <i type="logical" name="LOPTICS"> F  </i>
   <v name="STM">      0.00000000      0.00000000      0.00000000      0.00000000      0.00000000      0.00000000      0.00000000</v>
  </separator>
  <separator name="performance" >
   <i type="int" name="NPAR">    28</i>
   <i type="int" name="NSIM">     4</i>
   <i type="int" name="NBLK">    -1</i>
   <i type="logical" name="LPLANE"> T  </i>
   <i type="logical" name="LSCALAPACK"> T  </i>
   <i type="logical" name="LSCAAWARE"> F  </i>
   <i type="logical" name="LSCALU"> F  </i>
   <i type="logical" name="LASYNC"> F  </i>
   <i type="logical" name="LORBITALREAL"> F  </i>
  </separator>
  <separator name="miscellaneous" >
   <i type="int" name="IDIOT">     3</i>
   <i type="int" name="PHON_NSTRUCT">    -1</i>
   <i type="logical" name="LMUSIC"> F  </i>
   <v name="POMASS">    112.41100000    127.60000000</v>
   <v name="DARWINR">      0.00000000      0.00000000</v>
   <v name="DARWINV">      1.00000000      1.00000000</v>
   <i type="logical" name="LCORR"> T  </i>
  </separator>
  <i type="logical" name="GGA_COMPAT"> T  </i>
  <i type="logical" name="LBERRY"> F  </i>
  <i type="int" name="ICORELEVEL">     0</i>
  <i type="logical" name="LDAU"> F  </i>
  <i type="int" name="I_CONSTRAINED_M">     0</i>
  <separator name="electronic exchange-correlation" >
   <i type="string" name="GGA">PS</i>
   <i type="int" name="VOSKOWN">     0</i>
   <i type="logical" name="LHFCALC"> F  </i>
   <i type="string" name="PRECFOCK"></i>
   <i type="logical" name="LSYMGRAD"> F  </i>
   <i type="logical" name="LHFONE"> F  </i>
   <i type="logical" name="LRHFCALC"> F  </i>
   <i type="logical" name="LTHOMAS"> F  </i>
   <i type="logical" name="LMODELHF"> F  </i>
   <i type="logical" name="LFOCKACE"> F  </i>
   <i name="ENCUT4O">     -1.00000000</i>
   <i type="int" name="EXXOEP">     0</i>
   <i type="int" name="FOURORBIT">     0</i>
   <i name="AEXX">      0.00000000</i>
   <i name="HFALPHA">      0.00000000</i>
   <i name="MCALPHA">      0.00000000</i>
   <i name="ALDAX">      1.00000000</i>
   <i name="AGGAX">      1.00000000</i>
   <i name="ALDAC">      1.00000000</i>
   <i name="AGGAC">      1.00000000</i>
   <i type="int" name="NKREDX">     1</i>
   <i type="int" name="NKREDY">     1</i>
   <i type="int" name="NKREDZ">     1</i>
   <i type="logical" name="SHIFTRED"> F  </i>
   <i type="logical" name="ODDONLY"> F  </i>
   <i type="logical" name="EVENONLY"> F  </i>
   <i type="int" name="LMAXFOCK">     0</i>
   <i type="int" name="NMAXFOCKAE">     0</i>
   <i type="logical" name="LFOCKAEDFT"> F  </i>
   <i name="HFSCREEN">      0.00000000</i>
   <i name="HFSCREENC">      0.00000000</i>
   <i type="int" name="NBANDSGWLOW">     0</i>
  </separator>
  <separator name="vdW DFT" >
   <i type="logical" name="LUSE_VDW"> F  </i>
   <i name="Zab_VDW">     -0.84910000</i>
   <i name="PARAM1">      0.12340000</i>
   <i name="PARAM2">      1.00000000</i>
   <i name="PARAM3">      0.00000000</i>
  </separator>
  <separator name="model GW" >
   <i type="int" name="MODEL_GW">     0</i>
   <i name="MODEL_EPS0">     20.45075629</i>
   <i name="MODEL_ALPHA">      1.00000000</i>
  </separator>
  <separator name="linear response parameters" >
   <i type="logical" name="LEPSILON"> F  </i>
   <i type="logical" name="LRPA"> F  </i>
   <i type="logical" name="LNABLA"> F  </i>
   <i type="logical" name="LVEL"> F  </i>
   <i type="int" name="KINTER">     0</i>
   <i name="CSHIFT">      0.10000000</i>
   <i name="OMEGAMAX">     -1.00000000</i>
   <i name="DEG_THRESHOLD">      0.00200000</i>
   <i name="RTIME">     -0.10000000</i>
   <i name="WPLASMAI">      0.00000000</i>
   <v name="DFIELD">      0.00000000      0.00000000      0.00000000</v>
   <v name="WPLASMA">      0.00000000      0.00000000      0.00000000      0.00000000      0.00000000      0.00000000      0.00000000      0.00000000      0.00000000</v>
  </separator>
  <separator name="orbital magnetization" >
   <i type="logical" name="NUCIND"> F  </i>
   <v name="MAGPOS">      0.00000000      0.00000000      0.00000000</v>
   <i type="logical" name="LNICSALL"> T  </i>
   <i type="logical" name="ORBITALMAG"> F  </i>
   <i type="logical" name="LMAGBLOCH"> F  </i>
   <i type="logical" name="LCHIMAG"> F  </i>
   <i type="logical" name="LGAUGE"> T  </i>
   <i type="int" name="MAGATOM">     0</i>
   <v name="MAGDIPOL">      0.00000000      0.00000000      0.00000000</v>
   <v name="AVECCONST">      0.00000000      0.00000000      0.00000000</v>
  </separator>
  <separator name="response functions" >
   <i type="logical" name="LFINITE_TEMPERATURE"> F  </i>
   <i type="logical" name="LADDER"> F  </i>
   <i type="logical" name="LRPAFORCE"> F  </i>
   <i type="logical" name="LFXC"> F  </i>
   <i type="logical" name="LHARTREE"> T  </i>
   <i type="int" name="IBSE">     0</i>
   <v type="int" name="KPOINT">    -1     0     0     0</v>
   <i type="logical" name="LTCTC"> F  </i>
   <i type="logical" name="LTCTE"> F  </i>
   <i type="logical" name="LTETE"> F  </i>
   <i type="logical" name="LTRIPLET"> F  </i>
   <i type="logical" name="LFXCEPS"> F  </i>
   <i type="logical" name="LFXHEG"> F  </i>
   <i type="int" name="NATURALO">     2</i>
   <i type="logical" name="LHOLEGF"> F  </i>
   <i type="logical" name="L2ORDER"> F  </i>
   <i type="logical" name="LDMP1"> F  </i>
   <i type="logical" name="LMP2LT"> F  </i>
   <i type="logical" name="LSMP2LT"> F  </i>
   <i type="logical" name="LGWLF"> F  </i>
   <i name="ENCUTGW">     -2.00000000</i>
   <i name="ENCUTGWSOFT">     -2.00000000</i>
   <i name="ENCUTLF">     -1.00000000</i>
   <i type="logical" name="LESF_SPLINES"> F  </i>
   <i type="int" name="LMAXMP2">    -1</i>
   <i name="SCISSOR">      0.00000000</i>
   <i type="int" name="NOMEGA">     0</i>
   <i type="int" name="NOMEGAR">     0</i>
   <i type="int" name="NBANDSGW">    -1</i>
   <i type="int" name="NBANDSO">    -1</i>
   <i type="int" name="NBANDSV">    -1</i>
   <i type="int" name="NELM">     1</i>
   <i type="int" name="NELMHF">     1</i>
   <i type="int" name="DIM">     3</i>
   <i type="int" name="IESPILON">     4</i>
   <i type="int" name="ANTIRES">     0</i>
   <i name="OMEGAMAX">    -30.00000000</i>
   <i name="OMEGAMIN">    -30.00000000</i>
   <i name="OMEGATL">   -200.00000000</i>
   <i type="int" name="OMEGAGRID">     0</i>
   <i name="CSHIFT">     -0.10000000</i>
   <i type="logical" name="LSELFENERGY"> F  </i>
   <i type="logical" name="LSPECTRAL"> F  </i>
   <i type="logical" name="LSPECTRALGW"> F  </i>
   <i type="logical" name="LSINGLES"> F  </i>
   <i type="logical" name="LFERMIGW"> F  </i>
   <i type="logical" name="ODDONLYGW"> F  </i>
   <i type="logical" name="EVENONLYGW"> F  </i>
   <i type="int" name="NKREDLFX">     1</i>
   <i type="int" name="NKREDLFY">     1</i>
   <i type="int" name="NKREDLFZ">     1</i>
   <i type="int" name="MAXMEM">  2800</i>
   <i type="int" name="TELESCOPE">     0</i>
   <i type="int" name="NTAUPAR">    -1</i>
   <i type="int" name="NOMEGAPAR">    -1</i>
   <i name="LAMBDA">      1.00000000</i>
  </separator>
  <separator name="External order field" >
   <i name="OFIELD_KAPPA">      0.00000000</i>
   <v name="OFIELD_K">      0.00000000      0.00000000      0.00000000</v>
   <i name="OFIELD_Q6_NEAR">      0.00000000</i>
   <i name="OFIELD_Q6_FAR">      0.00000000</i>
   <i name="OFIELD_A">      0.00000000</i>
  </separator>
 </parameters>
 <atominfo>
  <atoms>       2 </atoms>
  <types>       2 </types>
  <array name="atoms" >
   <dimension dim="1">ion</dimension>
   <field type="string">element</field>
   <field type="int">atomtype</field>
   <set>
    <rc><c>Cd</c><c>   1</c></rc>
    <rc><c>Te</c><c>   2</c></rc>
   </set>
  </array>
  <array name="atomtypes" >
   <dimension dim="1">type</dimension>
   <field type="int">atomspertype</field>
   <field type="string">element</field>
   <field>mass</field>
   <field>valence</field>
   <field type="string">pseudopotential</field>
   <set>
    <rc><c>   1</c><c>Cd</c><c>    112.41100000</c><c>     12.00000000</c><c>  PAW_PBE Cd 06Sep2000                  </c></rc>
    <rc><c>   1</c><c>Te</c><c>    127.60000000</c><c>      6.00000000</c><c>  PAW_PBE Te 08Apr2002                  </c></rc>
   </set>
  </array>
 </atominfo>
 <structure name="initialpos" >
  <crystal>
   <varray name="basis" >
    <v>      -0.00000170       3.24229352       3.24229440 </v>
    <v>       3.24229724       0.00000227       3.24229662 </v>
    <v>       3.24230079       3.24229928       0.00000317 </v>
   </varray>
   <i name="volume">     68.16918762 </i>
   <varray name="rec_basis" >
    <v>      -0.15421184       0.15421176       0.15421176 </v>
    <v>       0.15421159      -0.15421181       0.15421185 </v>
    <v>       0.15421146       0.15421172      -0.15421160 </v>
   </varray>
  </crystal>
  <varray name="positions" >
   <v>       0.00000557       0.00000632       0.99999445 </v>
   <v>       0.74999443       0.74999368       0.75000555 </v>
  </varray>
 </structure>
 <calculation>
  <scstep>
   <time name="dav">    0.27    0.28</time>
   <time name="total">    0.31    0.33</time>
   <energy>
    <i name="alphaZ">     50.12830081 </i>
    <i name="ewald">  -1044.52642208 </i>
    <i name="hartreedc">   -510.29059307 </i>
    <i name="XCdc">    -20.64710916 </i>
    <i name="pawpsdc">   1402.45578259 </i>
    <i name="pawaedc">  -1331.56119850 </i>
    <i name="eentropy">      0.00023750 </i>
    <i name="bandstr">     -6.79756503 </i>
    <i name="atom">   1516.20786294 </i>
    <i name="e_fr_energy">     54.96929601 </i>
    <i name="e_wo_entrp">     54.96905851 </i>
    <i name="e_0_energy">     54.96921684 </i>
   </energy>
  </scstep>
  <scstep>
   <time name="dav">    0.34    0.34</time>
   <time name="total">    0.34    0.34</time>
   <energy>
    <i name="e_fr_energy">     -5.08101822 </i>
    <i name="e_wo_entrp">     -5.08160265 </i>
    <i name="e_0_energy">     -5.08121303 </i>
   </energy>
  </scstep>
  <scstep>
   <time name="dav">    0.37    0.37</time>
   <time name="total">    0.37    0.37</time>
   <energy>
    <i name="e_fr_energy">     -5.69239918 </i>
    <i name="e_wo_entrp">     -5.69297777 </i>
    <i name="e_0_energy">     -5.69259204 </i>
   </energy>
  </scstep>
  <scstep>
   <time name="dav">    0.49    0.48</time>
   <time name="total">    0.49    0.49</time>
   <energy>
    <i name="e_fr_energy">     -5.69317927 </i>
    <i name="e_wo_entrp">     -5.69375795 </i>
    <i name="e_0_energy">     -5.69337216 </i>
   </energy>
  </scstep>
  <scstep>
   <time name="dav">    0.35    0.36</time>
   <time name="total">    0.42    0.42</time>
   <energy>
    <i name="e_fr_energy">     -5.69317967 </i>
    <i name="e_wo_entrp">     -5.69375835 </i>
    <i name="e_0_energy">     -5.69337257 </i>
   </energy>
  </scstep>
  <scstep>
   <time name="dav">    0.39    0.39</time>
   <time name="total">    0.48    0.48</time>
   <energy>
    <i name="e_fr_energy">     -5.44558437 </i>
    <i name="e_wo_entrp">     -5.44615825 </i>
    <i name="e_0_energy">     -5.44577567 </i>
   </energy>
  </scstep>
  <scstep>
   <time name="dav">    0.39    0.39</time>
   <time name="total">    0.47    0.47</time>
   <energy>
    <i name="e_fr_energy">     -5.42262741 </i>
    <i name="e_wo_entrp">     -5.42323131 </i>
    <i name="e_0_energy">     -5.42282871 </i>
   </energy>
  </scstep>
  <scstep>
   <time name="dav">    0.35    0.35</time>
   <time name="total">    0.44    0.44</time>
   <energy>
    <i name="e_fr_energy">     -5.42138758 </i>
    <i name="e_wo_entrp">     -5.42200685 </i>
    <i name="e_0_energy">     -5.42159400 </i>
   </energy>
  </scstep>
  <scstep>
   <time name="dav">    0.38    0.38</time>
   <time name="total">    0.46    0.46</time>
   <energy>
    <i name="e_fr_energy">     -5.42140123 </i>
    <i name="e_wo_entrp">     -5.42201132 </i>
    <i name="e_0_energy">     -5.42160459 </i>
   </energy>
  </scstep>
  <scstep>
   <time name="dav">    0.37    0.37</time>
   <time name="total">    0.44    0.44</time>
   <energy>
    <i name="e_fr_energy">     -5.42145447 </i>
    <i name="e_wo_entrp">     -5.42206278 </i>
    <i name="e_0_energy">     -5.42165724 </i>
   </energy>
  </scstep>
  <scstep>
   <time name="dav">    0.37    0.37</time>
   <time name="total">    0.45    0.45</time>
   <energy>
    <i name="e_fr_energy">     -5.42146786 </i>
    <i name="e_wo_entrp">     -5.42207560 </i>
    <i name="e_0_energy">     -5.42167044 </i>
   </energy>
  </scstep>
  <scstep>
   <time name="dav">    0.37    0.37</time>
   <time name="total">    0.44    0.44</time>
   <energy>
    <i name="e_fr_energy">     -5.42147013 </i>
    <i name="e_wo_entrp">     -5.42207741 </i>
    <i name="e_0_energy">     -5.42167256 </i>
   </energy>
  </scstep>
  <scstep>
   <time name="dav">    0.40    0.40</time>
   <time name="total">    0.48    0.48</time>
   <energy>
    <i name="e_fr_energy">     -5.42147035 </i>
    <i name="e_wo_entrp">     -5.42207748 </i>
    <i name="e_0_energy">     -5.42167273 </i>
   </energy>
  </scstep>
  <scstep>
   <time name="dav">    0.42    0.42</time>
   <time name="total">    0.45    0.45</time>
   <energy>
    <i name="alphaZ">     50.12830081 </i>
    <i name="ewald">  -1044.52642208 </i>
    <i name="hartreedc">   -502.63904598 </i>
    <i name="XCdc">    -20.66753448 </i>
    <i name="pawpsdc">   1708.91569773 </i>
    <i name="pawaedc">  -1637.64942516 </i>
    <i name="eentropy">      0.00060712 </i>
    <i name="bandstr">    -75.19151127 </i>
    <i name="atom">   1516.20786294 </i>
    <i name="e_fr_energy">     -5.42147035 </i>
    <i name="e_wo_entrp">     -5.42207747 </i>
    <i name="e_0_energy">     -5.42167272 </i>
   </energy>
  </scstep>
  <structure>
   <crystal>
    <varray name="basis" >
     <v>      -0.00000170       3.24229352       3.24229440 </v>
     <v>       3.24229724       0.00000227       3.24229662 </v>
     <v>       3.24230079       3.24229928       0.00000317 </v>
    </varray>
    <i name="volume">     68.16918762 </i>
    <varray name="rec_basis" >
     <v>      -0.15421184       0.15421176       0.15421176 </v>
     <v>       0.15421159      -0.15421181       0.15421185 </v>
     <v>       0.15421146       0.15421172      -0.15421160 </v>
    </varray>
   </crystal>
   <varray name="positions" >
    <v>       0.00000557       0.00000632       0.99999445 </v>
    <v>       0.74999443       0.74999368       0.75000555 </v>
   </varray>
  </structure>
  <varray name="forces" >
   <v>       0.00000000       0.00000000      -0.00036057 </v>
   <v>      -0.00000000      -0.00000000       0.00036057 </v>
  </varray>
  <varray name="stress" >
   <v>       4.56613118      -0.01139665       0.00000010 </v>
   <v>      -0.01139665       4.56611821      -0.00000180 </v>
   <v>       0.00000010      -0.00000180       4.56620608 </v>
  </varray>
  <energy>
   <i name="e_fr_energy">     -5.42147035 </i>
   <i name="e_wo_entrp">     -5.42207747 </i>
   <i name="e_0_energy">     -5.42167272 </i>
  </energy>
  <time name="totalsc">    7.11    7.15</time>
 </calculation>
 <calculation>
  <scstep>
   <time name="dav">    0.26    0.26</time>
   <time name="total">    0.37    0.37</time>
   <energy>
    <i name="alphaZ">     49.43010775 </i>
    <i name="ewald">  -1039.65430176 </i>
    <i name="hartreedc">   -500.29437768 </i>
    <i name="XCdc">    -20.87435570 </i>
    <i name="pawpsdc">   1708.94020224 </i>
    <i name="pawaedc">  -1637.67397774 </i>
    <i name="eentropy">      0.00062264 </i>
    <i name="bandstr">    -81.53772230 </i>
    <i name="atom">   1516.20786294 </i>
    <i name="e_fr_energy">     -5.45593961 </i>
    <i name="e_wo_entrp">     -5.45656225 </i>
    <i name="e_0_energy">     -5.45614715 </i>
   </energy>
  </scstep>
  <scstep>
   <time name="dav">    0.31    0.31</time>
   <time name="total">    0.39    0.39</time>
   <energy>
    <i name="e_fr_energy">     -5.42599870 </i>
    <i name="e_wo_entrp">     -5.42662974 </i>
    <i name="e_0_energy">     -5.42620905 </i>
   </energy>
  </scstep>
  <scstep>
   <time name="dav">    0.31    0.31</time>
   <time name="total">    0.38    0.38</time>
   <energy>
    <i name="e_fr_energy">     -5.42293076 </i>
    <i name="e_wo_entrp">     -5.42358168 </i>
    <i name="e_0_energy">     -5.42314774 </i>
   </energy>
  </scstep>
  <scstep>
   <time name="dav">    0.31    0.31</time>
   <time name="total">    0.39    0.39</time>
   <energy>
    <i name="e_fr_energy">     -5.42243188 </i>
    <i name="e_wo_entrp">     -5.42309999 </i>
    <i name="e_0_energy">     -5.42265458 </i>
   </energy>
  </scstep>
  <scstep>
   <time name="dav">    0.29    0.29</time>
   <time name="total">    0.37    0.37</time>
   <energy>
    <i name="e_fr_energy">     -5.42241957 </i>
    <i name="e_wo_entrp">     -5.42308461 </i>
    <i name="e_0_energy">     -5.42264125 </i>
   </energy>
  </scstep>
  <scstep>
   <time name="dav">    0.43    0.43</time>
   <time name="total">    0.51    0.51</time>
   <energy>
    <i name="e_fr_energy">     -5.42242094 </i>
    <i name="e_wo_entrp">     -5.42308572 </i>
    <i name="e_0_energy">     -5.42264253 </i>
   </energy>
  </scstep>
  <scstep>
   <time name="dav">    0.33    0.33</time>
   <time name="total">    0.41    0.41</time>
   <energy>
    <i name="e_fr_energy">     -5.42242143 </i>
    <i name="e_wo_entrp">     -5.42308615 </i>
    <i name="e_0_energy">     -5.42264300 </i>
   </energy>
  </scstep>
  <scstep>
   <time name="dav">    0.49    0.49</time>
   <time name="total">    0.57    0.57</time>
   <energy>
    <i name="e_fr_energy">     -5.42242147 </i>
    <i name="e_wo_entrp">     -5.42308611 </i>
    <i name="e_0_energy">     -5.42264302 </i>
   </energy>
  </scstep>
  <scstep>
   <time name="dav">    0.29    0.29</time>
   <time name="total">    0.37    0.37</time>
   <energy>
    <i name="e_fr_energy">     -5.42242150 </i>
    <i name="e_wo_entrp">     -5.42308608 </i>
    <i name="e_0_energy">     -5.42264302 </i>
   </energy>
  </scstep>
  <scstep>
   <time name="dav">    0.46    0.46</time>
   <time name="total">    0.49    0.49</time>
   <energy>
    <i name="alphaZ">     49.43010775 </i>
    <i name="ewald">  -1039.65430176 </i>
    <i name="hartreedc">   -505.34886575 </i>
    <i name="XCdc">    -20.71702066 </i>
    <i name="pawpsdc">   1696.90507426 </i>
    <i name="pawaedc">  -1625.56487234 </i>
    <i name="eentropy">      0.00066458 </i>
    <i name="bandstr">    -76.68107050 </i>
    <i name="atom">   1516.20786294 </i>
    <i name="e_fr_energy">     -5.42242149 </i>
    <i name="e_wo_entrp">     -5.42308607 </i>
    <i name="e_0_energy">     -5.42264301 </i>
   </energy>
  </scstep>
  <structure>
   <crystal>
    <varray name="basis" >
     <v>      -0.00003963       3.25748773       3.25748890 </v>
     <v>       3.25749151      -0.00003565       3.25749114 </v>
     <v>       3.25745716       3.25745560       0.00000318 </v>
    </varray>
    <i name="volume">     69.13206745 </i>
    <varray name="rec_basis" >
     <v>      -0.15349075       0.15349067       0.15349245 </v>
     <v>       0.15349049      -0.15349072       0.15349253 </v>
     <v>       0.15349394       0.15349420      -0.15349228 </v>
    </varray>
   </crystal>
   <varray name="positions" >
    <v>       0.00000289       0.00000364       0.99999713 </v>
    <v>       0.74999711       0.74999636       0.75000287 </v>
   </varray>
  </structure>
  <varray name="forces" >
   <v>       0.00000000       0.00000000      -0.00006971 </v>
   <v>      -0.00000000      -0.00000000       0.00006971 </v>
  </varray>
  <varray name="stress" >
   <v>      -1.32673738       0.00207291      -0.00000003 </v>
   <v>       0.00207291      -1.32673358       0.00000053 </v>
   <v>      -0.00000003       0.00000053      -1.32666236 </v>
  </varray>
  <energy>
   <i name="e_fr_energy">     -5.42242149 </i>
   <i name="e_wo_entrp">     -5.42308607 </i>
   <i name="e_0_energy">     -5.42264301 </i>
  </energy>
  <time name="totalsc">    5.31    5.32</time>
 </calculation>
 <calculation>
  <scstep>
   <time name="dav">    0.26    0.26</time>
   <time name="total">    0.36    0.36</time>
   <energy>
    <i name="alphaZ">     49.58842826 </i>
    <i name="ewald">  -1040.76309410 </i>
    <i name="hartreedc">   -505.88782136 </i>
    <i name="XCdc">    -20.66968016 </i>
    <i name="pawpsdc">   1696.90801839 </i>
    <i name="pawaedc">  -1625.56781021 </i>
    <i name="eentropy">      0.00066225 </i>
    <i name="bandstr">    -75.24083697 </i>
    <i name="atom">   1516.20786294 </i>
    <i name="e_fr_energy">     -5.42427097 </i>
    <i name="e_wo_entrp">     -5.42493322 </i>
    <i name="e_0_energy">     -5.42449172 </i>
   </energy>
  </scstep>
  <scstep>
   <time name="dav">    0.33    0.33</time>
   <time name="total">    0.41    0.41</time>
   <energy>
    <i name="e_fr_energy">     -5.42268783 </i>
    <i name="e_wo_entrp">     -5.42334514 </i>
    <i name="e_0_energy">     -5.42290693 </i>
   </energy>
  </scstep>
  <scstep>
   <time name="dav">    0.27    0.27</time>
   <time name="total">    0.35    0.35</time>
   <energy>
    <i name="e_fr_energy">     -5.42253416 </i>
    <i name="e_wo_entrp">     -5.42318553 </i>
    <i name="e_0_energy">     -5.42275128 </i>
   </energy>
  </scstep>
  <scstep>
   <time name="dav">    0.36    0.36</time>
   <time name="total">    0.44    0.44</time>
   <energy>
    <i name="e_fr_energy">     -5.42251401 </i>
    <i name="e_wo_entrp">     -5.42316178 </i>
    <i name="e_0_energy">     -5.42272993 </i>
   </energy>
  </scstep>
  <scstep>
   <time name="dav">    0.26    0.26</time>
   <time name="total">    0.34    0.34</time>
   <energy>
    <i name="e_fr_energy">     -5.42251443 </i>
    <i name="e_wo_entrp">     -5.42316282 </i>
    <i name="e_0_energy">     -5.42273056 </i>
   </energy>
  </scstep>
  <scstep>
   <time name="dav">    0.45    0.45</time>
   <time name="total">    0.53    0.53</time>
   <energy>
    <i name="e_fr_energy">     -5.42251461 </i>
    <i name="e_wo_entrp">     -5.42316304 </i>
    <i name="e_0_energy">     -5.42273076 </i>
   </energy>
  </scstep>
  <scstep>
   <time name="dav">    0.31    0.31</time>
   <time name="total">    0.39    0.39</time>
   <energy>
    <i name="e_fr_energy">     -5.42251458 </i>
    <i name="e_wo_entrp">     -5.42316302 </i>
    <i name="e_0_energy">     -5.42273072 </i>
   </energy>
  </scstep>
  <scstep>
   <time name="dav">    0.39    0.39</time>
   <time name="total">    0.47    0.47</time>
   <energy>
    <i name="e_fr_energy">     -5.42251459 </i>
    <i name="e_wo_entrp">     -5.42316305 </i>
    <i name="e_0_energy">     -5.42273074 </i>
   </energy>
  </scstep>
  <scstep>
   <time name="dav">    0.31    0.31</time>
   <time name="total">    0.34    0.34</time>
   <energy>
    <i name="alphaZ">     49.58842826 </i>
    <i name="ewald">  -1040.76309410 </i>
    <i name="hartreedc">   -504.73136609 </i>
    <i name="XCdc">    -20.70579111 </i>
    <i name="pawpsdc">   1699.61960083 </i>
    <i name="pawaedc">  -1628.29605410 </i>
    <i name="eentropy">      0.00064847 </i>
    <i name="bandstr">    -76.34274970 </i>
    <i name="atom">   1516.20786294 </i>
    <i name="e_fr_energy">     -5.42251459 </i>
    <i name="e_wo_entrp">     -5.42316307 </i>
    <i name="e_0_energy">     -5.42273075 </i>
   </energy>
  </scstep>
  <structure>
   <crystal>
    <varray name="basis" >
     <v>      -0.00003417       3.25401726       3.25401862 </v>
     <v>       3.25402103      -0.00003019       3.25402085 </v>
     <v>       3.25399213       3.25399058       0.00000318 </v>
    </varray>
    <i name="volume">     68.91135015 </i>
    <varray name="rec_basis" >
     <v>      -0.15365471       0.15365463       0.15365614 </v>
     <v>       0.15365445      -0.15365467       0.15365622 </v>
     <v>       0.15365739       0.15365765      -0.15365597 </v>
    </varray>
   </crystal>
   <varray name="positions" >
    <v>       0.00000249       0.00000324       0.99999753 </v>
    <v>       0.74999751       0.74999676       0.75000247 </v>
   </varray>
  </structure>
  <varray name="forces" >
   <v>       0.00000000       0.00000000      -0.00006558 </v>
   <v>      -0.00000000      -0.00000000       0.00006558 </v>
  </varray>
  <varray name="stress" >
   <v>       0.00045876       0.00154763       0.00000000 </v>
   <v>       0.00154763       0.00045876       0.00000000 </v>
   <v>       0.00000000       0.00000000       0.00052089 </v>
  </varray>
  <energy>
   <i name="e_fr_energy">     -5.42251459 </i>
   <i name="e_wo_entrp">     -5.42316307 </i>
   <i name="e_0_energy">     -5.42273075 </i>
  </energy>
  <time name="totalsc">    4.64    4.64</time>
  <eigenvalues>
   <array>
    <dimension dim="1">band</dimension>
    <dimension dim="2">kpoint</dimension>
    <dimension dim="3">spin</dimension>
    <field>eigene</field>
    <field>occ</field>
    <set>
     <set comment="spin 1">
      <set comment="kpoint 1">
       <r>   -9.0088    1.0000 </r>
       <r>   -6.1194    1.0000 </r>
       <r>   -6.1194    1.0000 </r>
       <r>   -6.1194    1.0000 </r>
       <r>   -5.8664    1.0000 </r>
       <r>   -5.8664    1.0000 </r>
       <r>    2.1276    1.0008 </r>
       <r>    2.1276    1.0007 </r>
       <r>    2.1277    1.0006 </r>
       <r>    2.7379   -0.0039 </r>
       <r>    6.6599   -0.0000 </r>
       <r>    6.6600   -0.0000 </r>
       <r>    6.6600   -0.0000 </r>
       <r>    9.3994    0.0000 </r>
       <r>   11.4339    0.0000 </r>
       <r>   11.4339    0.0000 </r>
       <r>   12.0958    0.0000 </r>
       <r>   12.0959    0.0000 </r>
       <r>   12.0959    0.0000 </r>
       <r>   14.4020    0.0000 </r>
       <r>   21.7744    0.0000 </r>
       <r>   21.7746    0.0000 </r>
       <r>   21.7747    0.0000 </r>
       <r>   22.7107    0.0000 </r>
       <r>   22.7108    0.0000 </r>
       <r>   22.7108    0.0000 </r>
       <r>   23.7429    0.0000 </r>
       <r>   23.7430    0.0000 </r>
      </set>
      <set comment="kpoint 2">
       <r>   -8.8107    1.0000 </r>
       <r>   -6.0846    1.0000 </r>
       <r>   -6.0846    1.0000 </r>
       <r>   -5.9263    1.0000 </r>
       <r>   -5.8668    1.0000 </r>
       <r>   -5.8668    1.0000 </r>
       <r>   -0.6159    1.0000 </r>
       <r>    1.7024    1.0001 </r>
       <r>    1.7025    1.0001 </r>
       <r>    4.0005   -0.0000 </r>
       <r>    7.2054   -0.0000 </r>
       <r>    7.2054   -0.0000 </r>
       <r>    7.3709   -0.0000 </r>
       <r>   10.2611    0.0000 </r>
       <r>   10.4926    0.0000 </r>
       <r>   10.4927    0.0000 </r>
       <r>   12.8305    0.0000 </r>
       <r>   15.1571    0.0000 </r>
       <r>   15.1572    0.0000 </r>
       <r>   17.4783    0.0000 </r>
       <r>   17.5453    0.0000 </r>
       <r>   17.5455    0.0000 </r>
       <r>   17.9624    0.0000 </r>
       <r>   22.1227    0.0000 </r>
       <r>   23.3412    0.0000 </r>
       <r>   23.3414    0.0000 </r>
       <r>   23.9359    0.0000 </r>
       <r>   23.9361    0.0000 </r>
      </set>
      <set comment="kpoint 3">
       <r>   -8.8107    1.0000 </r>
       <r>   -6.0846    1.0000 </r>
       <r>   -6.0846    1.0000 </r>
       <r>   -5.9263    1.0000 </r>
       <r>   -5.8668    1.0000 </r>
       <r>   -5.8668    1.0000 </r>
       <r>   -0.6159    1.0000 </r>
       <r>    1.7023    1.0001 </r>
       <r>    1.7024    1.0001 </r>
       <r>    4.0004   -0.0000 </r>
       <r>    7.2053   -0.0000 </r>
       <r>    7.2054   -0.0000 </r>
       <r>    7.3709   -0.0000 </r>
       <r>   10.2611    0.0000 </r>
       <r>   10.4925    0.0000 </r>
       <r>   10.4927    0.0000 </r>
       <r>   12.8307    0.0000 </r>
       <r>   15.1572    0.0000 </r>
       <r>   15.1572    0.0000 </r>
       <r>   17.4785    0.0000 </r>
       <r>   17.5454    0.0000 </r>
       <r>   17.5456    0.0000 </r>
       <r>   17.9626    0.0000 </r>
       <r>   22.1225    0.0000 </r>
       <r>   23.3409    0.0000 </r>
       <r>   23.3411    0.0000 </r>
       <r>   23.9357    0.0000 </r>
       <r>   23.9359    0.0000 </r>
      </set>
      <set comment="kpoint 4">
       <r>   -8.6147    1.0000 </r>
       <r>   -6.0580    1.0000 </r>
       <r>   -6.0580    1.0000 </r>
       <r>   -5.8576    1.0000 </r>
       <r>   -5.8576    1.0000 </r>
       <r>   -5.5250    1.0000 </r>
       <r>   -2.2887    1.0000 </r>
       <r>    1.3595    1.0000 </r>
       <r>    1.3596    1.0000 </r>
       <r>    3.8314   -0.0000 </r>
       <r>    7.2421   -0.0000 </r>
       <r>    7.2421   -0.0000 </r>
       <r>    9.0413    0.0000 </r>
       <r>   10.6009    0.0000 </r>
       <r>   12.3420    0.0000 </r>
       <r>   12.3423    0.0000 </r>
       <r>   13.3273    0.0000 </r>
       <r>   13.6666    0.0000 </r>
       <r>   13.6668    0.0000 </r>
       <r>   17.9417    0.0000 </r>
       <r>   19.4471    0.0000 </r>
       <r>   19.4472    0.0000 </r>
       <r>   20.1259    0.0000 </r>
       <r>   20.4473    0.0000 </r>
       <r>   20.4473    0.0000 </r>
       <r>   22.5663    0.0000 </r>
       <r>   23.2288    0.0000 </r>
       <r>   23.6695    0.0000 </r>
      </set>
      <set comment="kpoint 5">
       <r>   -8.6147    1.0000 </r>
       <r>   -6.0580    1.0000 </r>
       <r>   -6.0580    1.0000 </r>
       <r>   -5.8576    1.0000 </r>
       <r>   -5.8576    1.0000 </r>
       <r>   -5.5250    1.0000 </r>
       <r>   -2.2887    1.0000 </r>
       <r>    1.3595    1.0000 </r>
       <r>    1.3596    1.0000 </r>
       <r>    3.8313   -0.0000 </r>
       <r>    7.2420   -0.0000 </r>
       <r>    7.2421   -0.0000 </r>
       <r>    9.0412    0.0000 </r>
       <r>   10.6010    0.0000 </r>
       <r>   12.3420    0.0000 </r>
       <r>   12.3423    0.0000 </r>
       <r>   13.3273    0.0000 </r>
       <r>   13.6666    0.0000 </r>
       <r>   13.6668    0.0000 </r>
       <r>   17.9421    0.0000 </r>
       <r>   19.4473    0.0000 </r>
       <r>   19.4473    0.0000 </r>
       <r>   20.1262    0.0000 </r>
       <r>   20.4475    0.0000 </r>
       <r>   20.4475    0.0000 </r>
       <r>   22.5662    0.0000 </r>
       <r>   23.2291    0.0000 </r>
       <r>   23.6699    0.0000 </r>
      </set>
      <set comment="kpoint 6">
       <r>   -8.7464    1.0000 </r>
       <r>   -6.0442    1.0000 </r>
       <r>   -6.0442    1.0000 </r>
       <r>   -5.9646    1.0000 </r>
       <r>   -5.8514    1.0000 </r>
       <r>   -5.8388    1.0000 </r>
       <r>   -0.5655    1.0000 </r>
       <r>    1.0487    1.0000 </r>
       <r>    1.0488    1.0000 </r>
       <r>    4.9829   -0.0000 </r>
       <r>    5.3478   -0.0000 </r>
       <r>    8.5102    0.0000 </r>
       <r>    8.5102    0.0000 </r>
       <r>    8.8160    0.0000 </r>
       <r>   11.9671    0.0000 </r>
       <r>   12.5861    0.0000 </r>
       <r>   13.7720    0.0000 </r>
       <r>   13.7721    0.0000 </r>
       <r>   14.1839    0.0000 </r>
       <r>   17.2559    0.0000 </r>
       <r>   17.2560    0.0000 </r>
       <r>   18.1474    0.0000 </r>
       <r>   18.4835    0.0000 </r>
       <r>   19.5826    0.0000 </r>
       <r>   23.0803    0.0000 </r>
       <r>   23.1256    0.0000 </r>
       <r>   23.1264    0.0000 </r>
       <r>   23.9357    0.0000 </r>
      </set>
      <set comment="kpoint 7">
       <r>   -8.7464    1.0000 </r>
       <r>   -6.0442    1.0000 </r>
       <r>   -6.0442    1.0000 </r>
       <r>   -5.9646    1.0000 </r>
       <r>   -5.8514    1.0000 </r>
       <r>   -5.8388    1.0000 </r>
       <r>   -0.5655    1.0000 </r>
       <r>    1.0487    1.0000 </r>
       <r>    1.0488    1.0000 </r>
       <r>    4.9829   -0.0000 </r>
       <r>    5.3478   -0.0000 </r>
       <r>    8.5102    0.0000 </r>
       <r>    8.5102    0.0000 </r>
       <r>    8.8160    0.0000 </r>
       <r>   11.9671    0.0000 </r>
       <r>   12.5861    0.0000 </r>
       <r>   13.7721    0.0000 </r>
       <r>   13.7721    0.0000 </r>
       <r>   14.1839    0.0000 </r>
       <r>   17.2559    0.0000 </r>
       <r>   17.2560    0.0000 </r>
       <r>   18.1474    0.0000 </r>
       <r>   18.4835    0.0000 </r>
       <r>   19.5825    0.0000 </r>
       <r>   23.0803    0.0000 </r>
       <r>   23.1260    0.0000 </r>
       <r>   23.1260    0.0000 </r>
       <r>   23.9357    0.0000 </r>
      </set>
      <set comment="kpoint 8">
       <r>   -8.5555    1.0000 </r>
       <r>   -6.0258    1.0000 </r>
       <r>   -6.0072    1.0000 </r>
       <r>   -5.9062    1.0000 </r>
       <r>   -5.8507    1.0000 </r>
       <r>   -5.4720    1.0000 </r>
       <r>   -1.9490    1.0000 </r>
       <r>    0.0545    1.0000 </r>
       <r>    0.7611    1.0000 </r>
       <r>    4.9992   -0.0000 </r>
       <r>    6.5367   -0.0000 </r>
       <r>    8.1875    0.0000 </r>
       <r>    8.7864    0.0000 </r>
       <r>   10.9907    0.0000 </r>
       <r>   12.5630    0.0000 </r>
       <r>   13.0028    0.0000 </r>
       <r>   13.4268    0.0000 </r>
       <r>   14.1390    0.0000 </r>
       <r>   16.8535    0.0000 </r>
       <r>   17.1516    0.0000 </r>
       <r>   17.6171    0.0000 </r>
       <r>   18.5701    0.0000 </r>
       <r>   18.6548    0.0000 </r>
       <r>   19.4309    0.0000 </r>
       <r>   20.0008    0.0000 </r>
       <r>   22.0228    0.0000 </r>
       <r>   22.4856    0.0000 </r>
       <r>   23.8886    0.0000 </r>
      </set>
      <set comment="kpoint 9">
       <r>   -8.5555    1.0000 </r>
       <r>   -6.0258    1.0000 </r>
       <r>   -6.0072    1.0000 </r>
       <r>   -5.9062    1.0000 </r>
       <r>   -5.8507    1.0000 </r>
       <r>   -5.4720    1.0000 </r>
       <r>   -1.9490    1.0000 </r>
       <r>    0.0546    1.0000 </r>
       <r>    0.7610    1.0000 </r>
       <r>    4.9992   -0.0000 </r>
       <r>    6.5369   -0.0000 </r>
       <r>    8.1876    0.0000 </r>
       <r>    8.7864    0.0000 </r>
       <r>   10.9905    0.0000 </r>
       <r>   12.5629    0.0000 </r>
       <r>   13.0030    0.0000 </r>
       <r>   13.4267    0.0000 </r>
       <r>   14.1389    0.0000 </r>
       <r>   16.8535    0.0000 </r>
       <r>   17.1515    0.0000 </r>
       <r>   17.6173    0.0000 </r>
       <r>   18.5700    0.0000 </r>
       <r>   18.6550    0.0000 </r>
       <r>   19.4309    0.0000 </r>
       <r>   20.0010    0.0000 </r>
       <r>   22.0230    0.0000 </r>
       <r>   22.4855    0.0000 </r>
       <r>   23.8887    0.0000 </r>
      </set>
      <set comment="kpoint 10">
       <r>   -8.5555    1.0000 </r>
       <r>   -6.0258    1.0000 </r>
       <r>   -6.0072    1.0000 </r>
       <r>   -5.9062    1.0000 </r>
       <r>   -5.8507    1.0000 </r>
       <r>   -5.4720    1.0000 </r>
       <r>   -1.9490    1.0000 </r>
       <r>    0.0545    1.0000 </r>
       <r>    0.7610    1.0000 </r>
       <r>    4.9991   -0.0000 </r>
       <r>    6.5368   -0.0000 </r>
       <r>    8.1874    0.0000 </r>
       <r>    8.7863    0.0000 </r>
       <r>   10.9907    0.0000 </r>
       <r>   12.5630    0.0000 </r>
       <r>   13.0028    0.0000 </r>
       <r>   13.4269    0.0000 </r>
       <r>   14.1390    0.0000 </r>
       <r>   16.8537    0.0000 </r>
       <r>   17.1516    0.0000 </r>
       <r>   17.6171    0.0000 </r>
       <r>   18.5703    0.0000 </r>
       <r>   18.6548    0.0000 </r>
       <r>   19.4312    0.0000 </r>
       <r>   20.0009    0.0000 </r>
       <r>   22.0229    0.0000 </r>
       <r>   22.4854    0.0000 </r>
       <r>   23.8889    0.0000 </r>
      </set>
      <set comment="kpoint 11">
       <r>   -8.5555    1.0000 </r>
       <r>   -6.0258    1.0000 </r>
       <r>   -6.0072    1.0000 </r>
       <r>   -5.9062    1.0000 </r>
       <r>   -5.8507    1.0000 </r>
       <r>   -5.4720    1.0000 </r>
       <r>   -1.9490    1.0000 </r>
       <r>    0.0546    1.0000 </r>
       <r>    0.7609    1.0000 </r>
       <r>    4.9990   -0.0000 </r>
       <r>    6.5370   -0.0000 </r>
       <r>    8.1875    0.0000 </r>
       <r>    8.7864    0.0000 </r>
       <r>   10.9906    0.0000 </r>
       <r>   12.5629    0.0000 </r>
       <r>   13.0029    0.0000 </r>
       <r>   13.4267    0.0000 </r>
       <r>   14.1389    0.0000 </r>
       <r>   16.8536    0.0000 </r>
       <r>   17.1516    0.0000 </r>
       <r>   17.6174    0.0000 </r>
       <r>   18.5702    0.0000 </r>
       <r>   18.6549    0.0000 </r>
       <r>   19.4311    0.0000 </r>
       <r>   20.0011    0.0000 </r>
       <r>   22.0230    0.0000 </r>
       <r>   22.4854    0.0000 </r>
       <r>   23.8890    0.0000 </r>
      </set>
      <set comment="kpoint 12">
       <r>   -8.6176    1.0000 </r>
       <r>   -6.0417    1.0000 </r>
       <r>   -6.0402    1.0000 </r>
       <r>   -5.8742    1.0000 </r>
       <r>   -5.8735    1.0000 </r>
       <r>   -5.5995    1.0000 </r>
       <r>   -1.5899    1.0000 </r>
       <r>   -0.0121    1.0000 </r>
       <r>    1.3279    1.0000 </r>
       <r>    5.1663   -0.0000 </r>
       <r>    7.2377   -0.0000 </r>
       <r>    7.6538   -0.0000 </r>
       <r>    7.8985    0.0000 </r>
       <r>   10.0762    0.0000 </r>
       <r>   11.5162    0.0000 </r>
       <r>   13.0930    0.0000 </r>
       <r>   13.4092    0.0000 </r>
       <r>   14.0150    0.0000 </r>
       <r>   17.0641    0.0000 </r>
       <r>   17.2600    0.0000 </r>
       <r>   17.5783    0.0000 </r>
       <r>   18.4253    0.0000 </r>
       <r>   19.2704    0.0000 </r>
       <r>   19.9936    0.0000 </r>
       <r>   21.4409    0.0000 </r>
       <r>   21.8046    0.0000 </r>
       <r>   22.5363    0.0000 </r>
       <r>   23.4227    0.0000 </r>
      </set>
      <set comment="kpoint 13">
       <r>   -8.6175    1.0000 </r>
       <r>   -6.0417    1.0000 </r>
       <r>   -6.0402    1.0000 </r>
       <r>   -5.8742    1.0000 </r>
       <r>   -5.8735    1.0000 </r>
       <r>   -5.5994    1.0000 </r>
       <r>   -1.5899    1.0000 </r>
       <r>   -0.0121    1.0000 </r>
       <r>    1.3279    1.0000 </r>
       <r>    5.1663   -0.0000 </r>
       <r>    7.2377   -0.0000 </r>
       <r>    7.6538   -0.0000 </r>
       <r>    7.8985    0.0000 </r>
       <r>   10.0761    0.0000 </r>
       <r>   11.5164    0.0000 </r>
       <r>   13.0930    0.0000 </r>
       <r>   13.4093    0.0000 </r>
       <r>   14.0150    0.0000 </r>
       <r>   17.0643    0.0000 </r>
       <r>   17.2600    0.0000 </r>
       <r>   17.5782    0.0000 </r>
       <r>   18.4253    0.0000 </r>
       <r>   19.2705    0.0000 </r>
       <r>   19.9935    0.0000 </r>
       <r>   21.4410    0.0000 </r>
       <r>   21.8047    0.0000 </r>
       <r>   22.5364    0.0000 </r>
       <r>   23.4228    0.0000 </r>
      </set>
      <set comment="kpoint 14">
       <r>   -8.6175    1.0000 </r>
       <r>   -6.0417    1.0000 </r>
       <r>   -6.0402    1.0000 </r>
       <r>   -5.8742    1.0000 </r>
       <r>   -5.8735    1.0000 </r>
       <r>   -5.5994    1.0000 </r>
       <r>   -1.5898    1.0000 </r>
       <r>   -0.0121    1.0000 </r>
       <r>    1.3278    1.0000 </r>
       <r>    5.1661   -0.0000 </r>
       <r>    7.2376   -0.0000 </r>
       <r>    7.6537   -0.0000 </r>
       <r>    7.8985    0.0000 </r>
       <r>   10.0760    0.0000 </r>
       <r>   11.5166    0.0000 </r>
       <r>   13.0930    0.0000 </r>
       <r>   13.4095    0.0000 </r>
       <r>   14.0151    0.0000 </r>
       <r>   17.0646    0.0000 </r>
       <r>   17.2599    0.0000 </r>
       <r>   17.5782    0.0000 </r>
       <r>   18.4253    0.0000 </r>
       <r>   19.2705    0.0000 </r>
       <r>   19.9934    0.0000 </r>
       <r>   21.4412    0.0000 </r>
       <r>   21.8048    0.0000 </r>
       <r>   22.5365    0.0000 </r>
       <r>   23.4228    0.0000 </r>
      </set>
      <set comment="kpoint 15">
       <r>   -8.4946    1.0000 </r>
       <r>   -5.9684    1.0000 </r>
       <r>   -5.9602    1.0000 </r>
       <r>   -5.9602    1.0000 </r>
       <r>   -5.8363    1.0000 </r>
       <r>   -5.3908    1.0000 </r>
       <r>   -2.1769    1.0000 </r>
       <r>    0.2782    1.0000 </r>
       <r>    0.2784    1.0000 </r>
       <r>    4.6271   -0.0000 </r>
       <r>    4.7134   -0.0000 </r>
       <r>   10.7856    0.0000 </r>
       <r>   11.1194    0.0000 </r>
       <r>   11.1194    0.0000 </r>
       <r>   12.9107    0.0000 </r>
       <r>   13.5961    0.0000 </r>
       <r>   13.5962    0.0000 </r>
       <r>   13.9955    0.0000 </r>
       <r>   15.7796    0.0000 </r>
       <r>   17.4752    0.0000 </r>
       <r>   17.7206    0.0000 </r>
       <r>   17.7207    0.0000 </r>
       <r>   18.1071    0.0000 </r>
       <r>   18.1887    0.0000 </r>
       <r>   19.2750    0.0000 </r>
       <r>   19.2751    0.0000 </r>
       <r>   20.5679    0.0000 </r>
       <r>   24.3032    0.0000 </r>
      </set>
      <set comment="kpoint 16">
       <r>   -8.4946    1.0000 </r>
       <r>   -5.9684    1.0000 </r>
       <r>   -5.9602    1.0000 </r>
       <r>   -5.9602    1.0000 </r>
       <r>   -5.8363    1.0000 </r>
       <r>   -5.3908    1.0000 </r>
       <r>   -2.1769    1.0000 </r>
       <r>    0.2783    1.0000 </r>
       <r>    0.2783    1.0000 </r>
       <r>    4.6271   -0.0000 </r>
       <r>    4.7135   -0.0000 </r>
       <r>   10.7856    0.0000 </r>
       <r>   11.1194    0.0000 </r>
       <r>   11.1194    0.0000 </r>
       <r>   12.9107    0.0000 </r>
       <r>   13.5962    0.0000 </r>
       <r>   13.5962    0.0000 </r>
       <r>   13.9955    0.0000 </r>
       <r>   15.7796    0.0000 </r>
       <r>   17.4752    0.0000 </r>
       <r>   17.7206    0.0000 </r>
       <r>   17.7206    0.0000 </r>
       <r>   18.1071    0.0000 </r>
       <r>   18.1887    0.0000 </r>
       <r>   19.2750    0.0000 </r>
       <r>   19.2750    0.0000 </r>
       <r>   20.5679    0.0000 </r>
       <r>   24.3032    0.0000 </r>
      </set>
      <set comment="kpoint 17">
       <r>   -8.4962    1.0000 </r>
       <r>   -6.0003    1.0000 </r>
       <r>   -5.9948    1.0000 </r>
       <r>   -5.8951    1.0000 </r>
       <r>   -5.8660    1.0000 </r>
       <r>   -5.3106    1.0000 </r>
       <r>   -2.0544    1.0000 </r>
       <r>   -0.1857    1.0000 </r>
       <r>   -0.0593    1.0000 </r>
       <r>    6.2941   -0.0000 </r>
       <r>    6.7071   -0.0000 </r>
       <r>    7.5719   -0.0000 </r>
       <r>    8.3160    0.0000 </r>
       <r>   11.6259    0.0000 </r>
       <r>   13.1446    0.0000 </r>
       <r>   13.2738    0.0000 </r>
       <r>   13.5370    0.0000 </r>
       <r>   15.6258    0.0000 </r>
       <r>   16.8097    0.0000 </r>
       <r>   17.1406    0.0000 </r>
       <r>   17.2240    0.0000 </r>
       <r>   17.8377    0.0000 </r>
       <r>   18.7220    0.0000 </r>
       <r>   19.0540    0.0000 </r>
       <r>   21.1195    0.0000 </r>
       <r>   21.8973    0.0000 </r>
       <r>   22.4262    0.0000 </r>
       <r>   22.4471    0.0000 </r>
      </set>
      <set comment="kpoint 18">
       <r>   -8.4962    1.0000 </r>
       <r>   -6.0003    1.0000 </r>
       <r>   -5.9948    1.0000 </r>
       <r>   -5.8951    1.0000 </r>
       <r>   -5.8660    1.0000 </r>
       <r>   -5.3106    1.0000 </r>
       <r>   -2.0544    1.0000 </r>
       <r>   -0.1857    1.0000 </r>
       <r>   -0.0593    1.0000 </r>
       <r>    6.2941   -0.0000 </r>
       <r>    6.7071   -0.0000 </r>
       <r>    7.5719   -0.0000 </r>
       <r>    8.3160    0.0000 </r>
       <r>   11.6259    0.0000 </r>
       <r>   13.1446    0.0000 </r>
       <r>   13.2738    0.0000 </r>
       <r>   13.5370    0.0000 </r>
       <r>   15.6258    0.0000 </r>
       <r>   16.8097    0.0000 </r>
       <r>   17.1406    0.0000 </r>
       <r>   17.2240    0.0000 </r>
       <r>   17.8377    0.0000 </r>
       <r>   18.7220    0.0000 </r>
       <r>   19.0540    0.0000 </r>
       <r>   21.1195    0.0000 </r>
       <r>   21.8973    0.0000 </r>
       <r>   22.4262    0.0000 </r>
       <r>   22.4471    0.0000 </r>
      </set>
     </set>
    </set>
   </array>
  </eigenvalues>
  <separator name="orbital magnetization" >
   <v name="MAGDIPOLOUT">      0.00000000      0.00000000      0.00000000</v>
  </separator>
 </calculation>
 <structure name="finalpos" >
  <crystal>
   <varray name="basis" >
    <v>      -0.00003417       3.25401726       3.25401862 </v>
    <v>       3.25402103      -0.00003019       3.25402085 </v>
    <v>       3.25399213       3.25399058       0.00000318 </v>
   </varray>
   <i name="volume">     68.91135015 </i>
   <varray name="rec_basis" >
    <v>      -0.15365471       0.15365463       0.15365614 </v>
    <v>       0.15365445      -0.15365467       0.15365622 </v>
    <v>       0.15365739       0.15365765      -0.15365597 </v>
   </varray>
  </crystal>
  <varray name="positions" >
   <v>       0.00000249       0.00000324       0.99999753 </v>
   <v>       0.74999751       0.74999676       0.75000247 </v>
  </varray>
 </structure>
</modeling>
