unknown system                          
           1
    -0.000002    3.242294    3.242294
     3.242297    0.000002    3.242297
     3.242301    3.242299    0.000003
   Cd   Te
     1     1
Direct configuration=     1
   0.00000557  0.00000632  0.99999445
   0.74999443  0.74999368  0.75000555
unknown system                          
           1
    -0.000040    3.257488    3.257489
     3.257492   -0.000036    3.257491
     3.257457    3.257456    0.000003
   Cd   Te
     1     1
Direct configuration=     2
   0.00000289  0.00000364  0.99999713
   0.74999711  0.74999636  0.75000287
unknown system                          
           1
    -0.000034    3.254017    3.254019
     3.254021   -0.000030    3.254021
     3.253992    3.253991    0.000003
   Cd   Te
     1     1
Direct configuration=     3
   0.00000249  0.00000324  0.99999753
   0.74999751  0.74999676  0.75000247
