       N       E                     dE             d eps       ncg     rms          rms(c)
DAV:   1     0.947059958214E+03    0.94706E+03   -0.69052E+04 25088   0.126E+03
DAV:   2     0.654668966301E+00   -0.94641E+03   -0.91281E+03 28252   0.289E+02
DAV:   3    -0.453638270449E+02   -0.46018E+02   -0.45798E+02 31416   0.639E+01
DAV:   4    -0.459548561527E+02   -0.59103E+00   -0.59094E+00 29764   0.638E+00
DAV:   5    -0.459615272227E+02   -0.66711E-02   -0.66710E-02 31220   0.704E-01    0.153E+01
DAV:   6    -0.440515906542E+02    0.19099E+01   -0.37595E+00 27244   0.951E+00    0.126E+01
DAV:   7    -0.439246729124E+02    0.12692E+00   -0.11920E+00 28868   0.265E+00    0.483E+00
DAV:   8    -0.439173600134E+02    0.73129E-02   -0.11281E-01 27412   0.157E+00    0.146E+00
DAV:   9    -0.439175676018E+02   -0.20759E-03   -0.11458E-02 30184   0.503E-01    0.410E-01
DAV:  10    -0.439172447753E+02    0.32283E-03   -0.19112E-03 28280   0.202E-01    0.148E-01
DAV:  11    -0.439173988729E+02   -0.15410E-03   -0.73812E-04 29428   0.875E-02    0.801E-02
DAV:  12    -0.439173849258E+02    0.13947E-04   -0.61791E-05 29372   0.314E-02    0.585E-02
DAV:  13    -0.439173899605E+02   -0.50346E-05   -0.66808E-05 29120   0.212E-02    0.994E-02
DAV:  14    -0.439173879355E+02    0.20250E-05   -0.16277E-05 27804   0.137E-02    0.229E-02
DAV:  15    -0.439173881649E+02   -0.22942E-06   -0.13980E-06 31080   0.241E-03    0.180E-02
DAV:  16    -0.439173884276E+02   -0.26272E-06   -0.16395E-07 28336   0.136E-03    0.173E-02
DAV:  17    -0.439173888796E+02   -0.45201E-06   -0.16566E-07 28616   0.103E-03    0.948E-03
DAV:  18    -0.439173889749E+02   -0.95260E-07   -0.92579E-09 24136   0.371E-04    0.825E-03
DAV:  19    -0.439173890853E+02   -0.11039E-06   -0.17620E-07 28420   0.902E-04    0.304E-03
DAV:  20    -0.439173891330E+02   -0.47723E-07   -0.32007E-08 28280   0.361E-04    0.152E-03
DAV:  21    -0.439173891038E+02    0.29217E-07   -0.16649E-09 17836   0.144E-04    0.181E-03
DAV:  22    -0.439173891655E+02   -0.61684E-07   -0.67178E-09 16548   0.149E-04    0.443E-04
DAV:  23    -0.439173891787E+02   -0.13215E-07   -0.16237E-09 17724   0.853E-05    0.221E-04
DAV:  24    -0.439173891814E+02   -0.27703E-08   -0.26328E-10 16604   0.379E-05
   1 F= -.43917389E+02 E0= -.43917389E+02  d E =-.430940E-12
