<?xml version="1.0" encoding="ISO-8859-1"?>
<modeling>
 <generator>
  <i name="program" type="string">vasp </i>
  <i name="version" type="string">6.1.2  </i>
  <i name="subversion" type="string">22Jul20 (build Dec 07 2020 09:43:49) complex                          parallel </i>
  <i name="platform" type="string">LinuxIFC </i>
  <i name="date" type="string">2023 08 20 </i>
  <i name="time" type="string">11:39:07 </i>
 </generator>
 <incar>
  <i type="string" name="PREC"> Accurate</i>
  <i type="logical" name="ADDGRID"> T  </i>
  <i name="EDIFF">      0.00000001</i>
  <i name="ENCUT">    600.00000000</i>
  <i type="logical" name="LREAL"> F  </i>
  <i type="int" name="ISMEAR">     0</i>
  <i name="SIGMA">      0.01000000</i>
  <i type="logical" name="LWAVE"> F  </i>
  <i type="logical" name="LCHARG"> F  </i>
  <i type="string" name="GGA"> PS</i>
  <i name="EDIFF">      0.00000001</i>
 </incar>
 <structure name="primitive_cell" >
  <crystal>
   <varray name="basis" >
    <v>      -0.00000340       6.48458704       6.48458880 </v>
    <v>       6.48459448       0.00000454       6.48459324 </v>
    <v>       6.48460158       6.48459856       0.00000634 </v>
   </varray>
   <i name="volume">    545.35350099 </i>
   <varray name="rec_basis" >
    <v>      -0.07710592       0.07710588       0.07710588 </v>
    <v>       0.07710579      -0.07710590       0.07710592 </v>
    <v>       0.07710573       0.07710586      -0.07710580 </v>
   </varray>
  </crystal>
  <varray name="positions" >
   <v>       0.00000278       0.00000316       0.99999723 </v>
   <v>       0.50000278       0.00000316       0.99999723 </v>
   <v>       0.00000278       0.50000316       0.99999723 </v>
   <v>       0.50000278       0.50000316       0.99999723 </v>
   <v>       0.00000278       0.00000316       0.49999723 </v>
   <v>       0.50000278       0.00000316       0.49999723 </v>
   <v>       0.00000278       0.50000316       0.49999723 </v>
   <v>       0.50000278       0.50000316       0.49999723 </v>
   <v>       0.37390677       0.37499684       0.37500277 </v>
   <v>       0.87499722       0.37499684       0.37500277 </v>
   <v>       0.37499722       0.87499684       0.37500277 </v>
   <v>       0.87499722       0.87499684       0.37500277 </v>
   <v>       0.37499722       0.37499684       0.87500277 </v>
   <v>       0.87499722       0.37499684       0.87500277 </v>
   <v>       0.37499722       0.87499684       0.87500277 </v>
   <v>       0.87499722       0.87499684       0.87500277 </v>
  </varray>
 </structure>
 <varray name="primitive_index" >
  <v type="int" >        1 </v>
  <v type="int" >        2 </v>
  <v type="int" >        3 </v>
  <v type="int" >        4 </v>
  <v type="int" >        5 </v>
  <v type="int" >        6 </v>
  <v type="int" >        7 </v>
  <v type="int" >        8 </v>
  <v type="int" >        9 </v>
  <v type="int" >       10 </v>
  <v type="int" >       11 </v>
  <v type="int" >       12 </v>
  <v type="int" >       13 </v>
  <v type="int" >       14 </v>
  <v type="int" >       15 </v>
  <v type="int" >       16 </v>
 </varray>
 <kpoints>
  <generation param="Gamma">
   <v type="int" name="divisions">       6        6        6 </v>
   <v name="usershift">      0.00000000       0.00000000       0.00000000 </v>
   <v name="genvec1">      0.16666667       0.00000000       0.00000000 </v>
   <v name="genvec2">     -0.00000000       0.16666667      -0.00000000 </v>
   <v name="genvec3">      0.00000000       0.00000000       0.16666667 </v>
   <v name="shift">      0.00000000       0.00000000       0.00000000 </v>
  </generation>
  <varray name="kpointlist" >
   <v>       0.00000000       0.00000000       0.00000000 </v>
   <v>       0.16666667      -0.00000000       0.00000000 </v>
   <v>       0.00000000       0.16666667      -0.00000000 </v>
   <v>      -0.00000000       0.00000000       0.16666667 </v>
   <v>       0.16666667       0.16666667       0.16666667 </v>
   <v>       0.33333333      -0.00000000       0.00000000 </v>
   <v>       0.00000000       0.33333333      -0.00000000 </v>
   <v>      -0.00000000       0.00000000       0.33333333 </v>
   <v>       0.33333333       0.33333333       0.33333333 </v>
   <v>       0.50000000      -0.00000000       0.00000000 </v>
   <v>       0.00000000       0.50000000       0.00000000 </v>
   <v>      -0.00000000       0.00000000       0.50000000 </v>
   <v>       0.50000000       0.50000000       0.50000000 </v>
   <v>       0.16666667       0.16666667       0.00000000 </v>
   <v>      -0.00000000       0.16666667       0.16666667 </v>
   <v>       0.16666667       0.00000000       0.16666667 </v>
   <v>       0.33333333       0.16666667       0.00000000 </v>
   <v>       0.00000000       0.33333333       0.16666667 </v>
   <v>       0.16666667       0.00000000       0.33333333 </v>
   <v>       0.16666667       0.16666667      -0.16666667 </v>
   <v>       0.33333333       0.16666667       0.33333333 </v>
   <v>       0.16666667       0.33333333       0.00000000 </v>
   <v>       0.16666667      -0.16666667      -0.16666667 </v>
   <v>       0.33333333       0.33333333       0.16666667 </v>
   <v>      -0.00000000       0.16666667       0.33333333 </v>
   <v>      -0.16666667       0.16666667      -0.16666667 </v>
   <v>       0.16666667       0.33333333       0.33333333 </v>
   <v>       0.33333333      -0.00000000       0.16666667 </v>
   <v>       0.50000000       0.16666667       0.00000000 </v>
   <v>       0.00000000       0.50000000       0.16666667 </v>
   <v>       0.16666667       0.00000000       0.50000000 </v>
   <v>       0.16666667       0.16666667      -0.33333333 </v>
   <v>       0.50000000       0.33333333       0.50000000 </v>
   <v>       0.16666667       0.50000000       0.00000000 </v>
   <v>       0.33333333      -0.16666667      -0.16666667 </v>
   <v>       0.50000000       0.50000000       0.33333333 </v>
   <v>      -0.00000000       0.16666667       0.50000000 </v>
   <v>      -0.16666667       0.33333333      -0.16666667 </v>
   <v>       0.33333333       0.50000000       0.50000000 </v>
   <v>       0.50000000      -0.00000000       0.16666667 </v>
   <v>      -0.33333333       0.16666667      -0.00000000 </v>
   <v>      -0.00000000      -0.33333333       0.16666667 </v>
   <v>       0.16666667      -0.00000000      -0.33333333 </v>
   <v>       0.16666667       0.16666667       0.50000000 </v>
   <v>      -0.33333333       0.50000000      -0.33333333 </v>
   <v>       0.16666667      -0.33333333      -0.00000000 </v>
   <v>       0.50000000      -0.16666667      -0.16666667 </v>
   <v>      -0.33333333      -0.33333333       0.50000000 </v>
   <v>       0.00000000       0.16666667      -0.33333333 </v>
   <v>      -0.16666667       0.50000000      -0.16666667 </v>
   <v>       0.50000000      -0.33333333      -0.33333333 </v>
   <v>      -0.33333333       0.00000000       0.16666667 </v>
   <v>      -0.16666667       0.16666667       0.00000000 </v>
   <v>      -0.00000000      -0.16666667       0.16666667 </v>
   <v>       0.16666667      -0.00000000      -0.16666667 </v>
   <v>       0.16666667       0.16666667       0.33333333 </v>
   <v>      -0.16666667      -0.33333333      -0.16666667 </v>
   <v>      -0.33333333      -0.16666667      -0.16666667 </v>
   <v>       0.33333333       0.33333333       0.00000000 </v>
   <v>      -0.00000000       0.33333333       0.33333333 </v>
   <v>       0.33333333       0.00000000       0.33333333 </v>
   <v>       0.50000000       0.33333333       0.00000000 </v>
   <v>      -0.00000000       0.50000000       0.33333333 </v>
   <v>       0.33333333      -0.00000000       0.50000000 </v>
   <v>       0.33333333       0.33333333      -0.16666667 </v>
   <v>       0.50000000       0.16666667       0.50000000 </v>
   <v>       0.33333333       0.50000000       0.00000000 </v>
   <v>       0.16666667      -0.33333333      -0.33333333 </v>
   <v>       0.50000000       0.50000000       0.16666667 </v>
   <v>      -0.00000000       0.33333333       0.50000000 </v>
   <v>      -0.33333333       0.16666667      -0.33333333 </v>
   <v>       0.16666667       0.50000000       0.50000000 </v>
   <v>       0.50000000      -0.00000000       0.33333333 </v>
   <v>      -0.33333333       0.33333333       0.00000000 </v>
   <v>      -0.00000000      -0.33333333       0.33333333 </v>
   <v>       0.33333333      -0.00000000      -0.33333333 </v>
   <v>       0.33333333       0.33333333      -0.33333333 </v>
   <v>      -0.33333333       0.33333333      -0.33333333 </v>
   <v>       0.33333333      -0.33333333      -0.33333333 </v>
   <v>       0.50000000       0.50000000       0.00000000 </v>
   <v>      -0.00000000       0.50000000       0.50000000 </v>
   <v>       0.50000000      -0.00000000       0.50000000 </v>
   <v>       0.50000000       0.33333333       0.16666667 </v>
   <v>       0.16666667       0.50000000       0.33333333 </v>
   <v>       0.33333333       0.16666667       0.50000000 </v>
   <v>       0.33333333       0.16666667      -0.16666667 </v>
   <v>       0.50000000       0.16666667       0.33333333 </v>
   <v>       0.16666667      -0.33333333      -0.16666667 </v>
   <v>       0.16666667       0.33333333      -0.16666667 </v>
   <v>       0.16666667      -0.16666667      -0.33333333 </v>
   <v>       0.33333333       0.50000000       0.16666667 </v>
   <v>      -0.16666667       0.16666667      -0.33333333 </v>
   <v>      -0.33333333       0.16666667      -0.16666667 </v>
   <v>       0.16666667       0.33333333       0.50000000 </v>
   <v>      -0.33333333       0.33333333       0.16666667 </v>
   <v>       0.16666667      -0.33333333       0.33333333 </v>
   <v>       0.33333333       0.16666667      -0.33333333 </v>
   <v>      -0.33333333       0.33333333       0.50000000 </v>
   <v>       0.16666667       0.50000000      -0.16666667 </v>
   <v>       0.33333333      -0.16666667      -0.33333333 </v>
   <v>       0.50000000      -0.33333333       0.33333333 </v>
   <v>      -0.16666667       0.16666667       0.50000000 </v>
   <v>      -0.33333333       0.33333333      -0.16666667 </v>
   <v>       0.33333333       0.50000000      -0.33333333 </v>
   <v>       0.50000000      -0.16666667       0.16666667 </v>
   <v>      -0.16666667      -0.33333333       0.33333333 </v>
   <v>      -0.33333333       0.50000000       0.16666667 </v>
   <v>       0.16666667      -0.33333333       0.50000000 </v>
   <v>       0.50000000       0.16666667      -0.33333333 </v>
   <v>       0.50000000       0.33333333      -0.16666667 </v>
   <v>      -0.33333333       0.16666667       0.50000000 </v>
   <v>       0.16666667       0.50000000      -0.33333333 </v>
  </varray>
  <varray name="weights" >
   <v>       0.00462963 </v>
   <v>       0.00925926 </v>
   <v>       0.00925926 </v>
   <v>       0.00925926 </v>
   <v>       0.00925926 </v>
   <v>       0.00925926 </v>
   <v>       0.00925926 </v>
   <v>       0.00925926 </v>
   <v>       0.00925926 </v>
   <v>       0.00462963 </v>
   <v>       0.00462963 </v>
   <v>       0.00462963 </v>
   <v>       0.00462963 </v>
   <v>       0.00925926 </v>
   <v>       0.00925926 </v>
   <v>       0.00925926 </v>
   <v>       0.00925926 </v>
   <v>       0.00925926 </v>
   <v>       0.00925926 </v>
   <v>       0.00925926 </v>
   <v>       0.00925926 </v>
   <v>       0.00925926 </v>
   <v>       0.00925926 </v>
   <v>       0.00925926 </v>
   <v>       0.00925926 </v>
   <v>       0.00925926 </v>
   <v>       0.00925926 </v>
   <v>       0.00925926 </v>
   <v>       0.00925926 </v>
   <v>       0.00925926 </v>
   <v>       0.00925926 </v>
   <v>       0.00925926 </v>
   <v>       0.00925926 </v>
   <v>       0.00925926 </v>
   <v>       0.00925926 </v>
   <v>       0.00925926 </v>
   <v>       0.00925926 </v>
   <v>       0.00925926 </v>
   <v>       0.00925926 </v>
   <v>       0.00925926 </v>
   <v>       0.00925926 </v>
   <v>       0.00925926 </v>
   <v>       0.00925926 </v>
   <v>       0.00925926 </v>
   <v>       0.00925926 </v>
   <v>       0.00925926 </v>
   <v>       0.00925926 </v>
   <v>       0.00925926 </v>
   <v>       0.00925926 </v>
   <v>       0.00925926 </v>
   <v>       0.00925926 </v>
   <v>       0.00925926 </v>
   <v>       0.00925926 </v>
   <v>       0.00925926 </v>
   <v>       0.00925926 </v>
   <v>       0.00925926 </v>
   <v>       0.00925926 </v>
   <v>       0.00925926 </v>
   <v>       0.00925926 </v>
   <v>       0.00925926 </v>
   <v>       0.00925926 </v>
   <v>       0.00925926 </v>
   <v>       0.00925926 </v>
   <v>       0.00925926 </v>
   <v>       0.00925926 </v>
   <v>       0.00925926 </v>
   <v>       0.00925926 </v>
   <v>       0.00925926 </v>
   <v>       0.00925926 </v>
   <v>       0.00925926 </v>
   <v>       0.00925926 </v>
   <v>       0.00925926 </v>
   <v>       0.00925926 </v>
   <v>       0.00925926 </v>
   <v>       0.00925926 </v>
   <v>       0.00925926 </v>
   <v>       0.00925926 </v>
   <v>       0.00925926 </v>
   <v>       0.00925926 </v>
   <v>       0.00462963 </v>
   <v>       0.00462963 </v>
   <v>       0.00462963 </v>
   <v>       0.00925926 </v>
   <v>       0.00925926 </v>
   <v>       0.00925926 </v>
   <v>       0.00925926 </v>
   <v>       0.00925926 </v>
   <v>       0.00925926 </v>
   <v>       0.00925926 </v>
   <v>       0.00925926 </v>
   <v>       0.00925926 </v>
   <v>       0.00925926 </v>
   <v>       0.00925926 </v>
   <v>       0.00925926 </v>
   <v>       0.00925926 </v>
   <v>       0.00925926 </v>
   <v>       0.00925926 </v>
   <v>       0.00925926 </v>
   <v>       0.00925926 </v>
   <v>       0.00925926 </v>
   <v>       0.00925926 </v>
   <v>       0.00925926 </v>
   <v>       0.00925926 </v>
   <v>       0.00925926 </v>
   <v>       0.00925926 </v>
   <v>       0.00925926 </v>
   <v>       0.00925926 </v>
   <v>       0.00925926 </v>
   <v>       0.00925926 </v>
   <v>       0.00925926 </v>
   <v>       0.00925926 </v>
   <v>       0.00925926 </v>
  </varray>
 </kpoints>
 <parameters>
  <separator name="general" >
   <i type="string" name="SYSTEM">unknown system</i>
   <i type="logical" name="LCOMPAT"> F  </i>
  </separator>
  <separator name="electronic" >
   <i type="string" name="PREC">accura</i>
   <i name="ENMAX">    600.00000000</i>
   <i name="ENAUG">    456.10600000</i>
   <i name="EDIFF">      0.00000001</i>
   <i type="int" name="IALGO">    38</i>
   <i type="int" name="IWAVPR">    10</i>
   <i type="int" name="NBANDS">   112</i>
   <i type="int" name="NBANDSLOW">    -1</i>
   <i type="int" name="NBANDSHIGH">    -1</i>
   <i name="NELECT">    144.00000000</i>
   <i type="int" name="TURBO">     0</i>
   <i type="int" name="IRESTART">     0</i>
   <i type="int" name="NREBOOT">     0</i>
   <i type="int" name="NMIN">     0</i>
   <i name="EREF">      0.00000000</i>
   <separator name="electronic smearing" >
    <i type="int" name="ISMEAR">     0</i>
    <i name="SIGMA">      0.01000000</i>
    <i name="KSPACING">      0.50000000</i>
    <i type="logical" name="KGAMMA"> T  </i>
    <i type="logical" name="KBLOWUP"> T  </i>
   </separator>
   <separator name="electronic projectors" >
    <i type="logical" name="LREAL"> F  </i>
    <v name="ROPT">      0.00000000      0.00000000</v>
    <i type="int" name="LMAXPAW">  -100</i>
    <i type="int" name="LMAXMIX">     2</i>
    <i type="logical" name="NLSPLINE"> F  </i>
   </separator>
   <separator name="electronic startup" >
    <i type="int" name="ISTART">     0</i>
    <i type="int" name="ICHARG">     2</i>
    <i type="int" name="INIWAV">     1</i>
   </separator>
   <separator name="electronic spin" >
    <i type="int" name="ISPIN">     1</i>
    <i type="logical" name="LNONCOLLINEAR"> F  </i>
    <v name="MAGMOM">      1.00000000      1.00000000      1.00000000      1.00000000      1.00000000      1.00000000      1.00000000      1.00000000      1.00000000      1.00000000      1.00000000      1.00000000      1.00000000      1.00000000      1.00000000      1.00000000</v>
    <i name="NUPDOWN">     -1.00000000</i>
    <i type="logical" name="LSORBIT"> F  </i>
    <v name="SAXIS">      0.00000000      0.00000000      1.00000000</v>
    <i type="logical" name="LSPIRAL"> F  </i>
    <v name="QSPIRAL">      0.00000000      0.00000000      0.00000000</v>
    <i type="logical" name="LZEROZ"> F  </i>
   </separator>
   <separator name="electronic exchange-correlation" >
    <i type="logical" name="LASPH"> F  </i>
    <i type="logical" name="LMETAGGA"> F  </i>
   </separator>
   <separator name="electronic convergence" >
    <i type="int" name="NELM">    60</i>
    <i type="int" name="NELMDL">     0</i>
    <i type="int" name="NELMIN">     2</i>
    <i name="ENINI">    600.00000000</i>
    <separator name="electronic convergence detail" >
     <i type="logical" name="LDIAG"> T  </i>
     <i type="logical" name="LSUBROT"> F  </i>
     <i name="WEIMIN">      0.00000000</i>
     <i name="EBREAK">      0.00000000</i>
     <i name="DEPER">      0.30000000</i>
     <i type="int" name="NRMM">     4</i>
     <i name="TIME">      0.40000000</i>
    </separator>
   </separator>
   <separator name="electronic mixer" >
    <i name="AMIX">      0.40000000</i>
    <i name="BMIX">      1.00000000</i>
    <i name="AMIN">      0.10000000</i>
    <i name="AMIX_MAG">      1.60000000</i>
    <i name="BMIX_MAG">      1.00000000</i>
    <separator name="electronic mixer details" >
     <i type="int" name="IMIX">     4</i>
     <i type="logical" name="MIXFIRST"> F  </i>
     <i type="int" name="MAXMIX">   -45</i>
     <i name="WC">    100.00000000</i>
     <i type="int" name="INIMIX">     1</i>
     <i type="int" name="MIXPRE">     1</i>
     <i type="int" name="MREMOVE">     5</i>
    </separator>
   </separator>
   <separator name="electronic dipolcorrection" >
    <i type="logical" name="LDIPOL"> F  </i>
    <i type="logical" name="LMONO"> F  </i>
    <i type="int" name="IDIPOL">     0</i>
    <i name="EPSILON">      1.00000000</i>
    <v name="DIPOL">   -100.00000000   -100.00000000   -100.00000000</v>
    <i name="EFIELD">      0.00000000</i>
   </separator>
  </separator>
  <separator name="grids" >
   <i type="int" name="NGX">    80</i>
   <i type="int" name="NGY">    80</i>
   <i type="int" name="NGZ">    80</i>
   <i type="int" name="NGXF">   160</i>
   <i type="int" name="NGYF">   160</i>
   <i type="int" name="NGZF">   160</i>
   <i type="logical" name="ADDGRID"> T  </i>
  </separator>
  <separator name="ionic" >
   <i type="int" name="NSW">     0</i>
   <i type="int" name="IBRION">    -1</i>
   <i type="int" name="MDALGO">     0</i>
   <i type="int" name="ISIF">     2</i>
   <i name="PSTRESS">      0.00000000</i>
   <i name="EDIFFG">      0.00000010</i>
   <i type="int" name="NFREE">     0</i>
   <i name="POTIM">      0.50000000</i>
   <i name="SMASS">     -3.00000000</i>
   <i name="SCALEE">      1.00000000</i>
  </separator>
  <separator name="ionic md" >
   <i name="TEBEG">      0.00010000</i>
   <i name="TEEND">      0.00010000</i>
   <i type="int" name="NBLOCK">     1</i>
   <i type="int" name="KBLOCK">     1</i>
   <i type="int" name="NPACO">   256</i>
   <i name="APACO">     16.00000000</i>
  </separator>
  <separator name="symmetry" >
   <i type="int" name="ISYM">     2</i>
   <i name="SYMPREC">      0.00001000</i>
  </separator>
  <separator name="dos" >
   <i type="int" name="LORBIT">     0</i>
   <v name="RWIGS">     -1.00000000     -1.00000000</v>
   <i type="int" name="NEDOS">   301</i>
   <i name="EMIN">     10.00000000</i>
   <i name="EMAX">    -10.00000000</i>
   <i name="EFERMI">      0.00000000</i>
  </separator>
  <separator name="writing" >
   <i type="int" name="NWRITE">     2</i>
   <i type="logical" name="LWAVE"> F  </i>
   <i type="logical" name="LDOWNSAMPLE"> F  </i>
   <i type="logical" name="LCHARG"> F  </i>
   <i type="logical" name="LPARD"> F  </i>
   <i type="logical" name="LVTOT"> F  </i>
   <i type="logical" name="LVHAR"> F  </i>
   <i type="logical" name="LELF"> F  </i>
   <i type="logical" name="LOPTICS"> F  </i>
   <v name="STM">      0.00000000      0.00000000      0.00000000      0.00000000      0.00000000      0.00000000      0.00000000</v>
  </separator>
  <separator name="performance" >
   <i type="int" name="NPAR">    28</i>
   <i type="int" name="NSIM">     4</i>
   <i type="int" name="NBLK">    -1</i>
   <i type="logical" name="LPLANE"> T  </i>
   <i type="logical" name="LSCALAPACK"> T  </i>
   <i type="logical" name="LSCAAWARE"> F  </i>
   <i type="logical" name="LSCALU"> F  </i>
   <i type="logical" name="LASYNC"> F  </i>
   <i type="logical" name="LORBITALREAL"> F  </i>
  </separator>
  <separator name="miscellaneous" >
   <i type="int" name="IDIOT">     3</i>
   <i type="int" name="PHON_NSTRUCT">    -1</i>
   <i type="logical" name="LMUSIC"> F  </i>
   <v name="POMASS">    112.41100000    127.60000000</v>
   <v name="DARWINR">      0.00000000      0.00000000</v>
   <v name="DARWINV">      1.00000000      1.00000000</v>
   <i type="logical" name="LCORR"> T  </i>
  </separator>
  <i type="logical" name="GGA_COMPAT"> T  </i>
  <i type="logical" name="LBERRY"> F  </i>
  <i type="int" name="ICORELEVEL">     0</i>
  <i type="logical" name="LDAU"> F  </i>
  <i type="int" name="I_CONSTRAINED_M">     0</i>
  <separator name="electronic exchange-correlation" >
   <i type="string" name="GGA">PS</i>
   <i type="int" name="VOSKOWN">     0</i>
   <i type="logical" name="LHFCALC"> F  </i>
   <i type="string" name="PRECFOCK"></i>
   <i type="logical" name="LSYMGRAD"> F  </i>
   <i type="logical" name="LHFONE"> F  </i>
   <i type="logical" name="LRHFCALC"> F  </i>
   <i type="logical" name="LTHOMAS"> F  </i>
   <i type="logical" name="LMODELHF"> F  </i>
   <i type="logical" name="LFOCKACE"> F  </i>
   <i name="ENCUT4O">     -1.00000000</i>
   <i type="int" name="EXXOEP">     0</i>
   <i type="int" name="FOURORBIT">     0</i>
   <i name="AEXX">      0.00000000</i>
   <i name="HFALPHA">      0.00000000</i>
   <i name="MCALPHA">      0.00000000</i>
   <i name="ALDAX">      1.00000000</i>
   <i name="AGGAX">      1.00000000</i>
   <i name="ALDAC">      1.00000000</i>
   <i name="AGGAC">      1.00000000</i>
   <i type="int" name="NKREDX">     1</i>
   <i type="int" name="NKREDY">     1</i>
   <i type="int" name="NKREDZ">     1</i>
   <i type="logical" name="SHIFTRED"> F  </i>
   <i type="logical" name="ODDONLY"> F  </i>
   <i type="logical" name="EVENONLY"> F  </i>
   <i type="int" name="LMAXFOCK">     0</i>
   <i type="int" name="NMAXFOCKAE">     0</i>
   <i type="logical" name="LFOCKAEDFT"> F  </i>
   <i name="HFSCREEN">      0.00000000</i>
   <i name="HFSCREENC">      0.00000000</i>
   <i type="int" name="NBANDSGWLOW">     0</i>
  </separator>
  <separator name="vdW DFT" >
   <i type="logical" name="LUSE_VDW"> F  </i>
   <i name="Zab_VDW">     -0.84910000</i>
   <i name="PARAM1">      0.12340000</i>
   <i name="PARAM2">      1.00000000</i>
   <i name="PARAM3">      0.00000000</i>
  </separator>
  <separator name="model GW" >
   <i type="int" name="MODEL_GW">     0</i>
   <i name="MODEL_EPS0">     20.45075629</i>
   <i name="MODEL_ALPHA">      1.00000000</i>
  </separator>
  <separator name="linear response parameters" >
   <i type="logical" name="LEPSILON"> F  </i>
   <i type="logical" name="LRPA"> F  </i>
   <i type="logical" name="LNABLA"> F  </i>
   <i type="logical" name="LVEL"> F  </i>
   <i type="int" name="KINTER">     0</i>
   <i name="CSHIFT">      0.10000000</i>
   <i name="OMEGAMAX">     -1.00000000</i>
   <i name="DEG_THRESHOLD">      0.00200000</i>
   <i name="RTIME">     -0.10000000</i>
   <i name="WPLASMAI">      0.00000000</i>
   <v name="DFIELD">      0.00000000      0.00000000      0.00000000</v>
   <v name="WPLASMA">      0.00000000      0.00000000      0.00000000      0.00000000      0.00000000      0.00000000      0.00000000      0.00000000      0.00000000</v>
  </separator>
  <separator name="orbital magnetization" >
   <i type="logical" name="NUCIND"> F  </i>
   <v name="MAGPOS">      0.00000000      0.00000000      0.00000000</v>
   <i type="logical" name="LNICSALL"> T  </i>
   <i type="logical" name="ORBITALMAG"> F  </i>
   <i type="logical" name="LMAGBLOCH"> F  </i>
   <i type="logical" name="LCHIMAG"> F  </i>
   <i type="logical" name="LGAUGE"> T  </i>
   <i type="int" name="MAGATOM">     0</i>
   <v name="MAGDIPOL">      0.00000000      0.00000000      0.00000000</v>
   <v name="AVECCONST">      0.00000000      0.00000000      0.00000000</v>
  </separator>
  <separator name="response functions" >
   <i type="logical" name="LFINITE_TEMPERATURE"> F  </i>
   <i type="logical" name="LADDER"> F  </i>
   <i type="logical" name="LRPAFORCE"> F  </i>
   <i type="logical" name="LFXC"> F  </i>
   <i type="logical" name="LHARTREE"> T  </i>
   <i type="int" name="IBSE">     0</i>
   <v type="int" name="KPOINT">    -1     0     0     0</v>
   <i type="logical" name="LTCTC"> F  </i>
   <i type="logical" name="LTCTE"> F  </i>
   <i type="logical" name="LTETE"> F  </i>
   <i type="logical" name="LTRIPLET"> F  </i>
   <i type="logical" name="LFXCEPS"> F  </i>
   <i type="logical" name="LFXHEG"> F  </i>
   <i type="int" name="NATURALO">     2</i>
   <i type="logical" name="LHOLEGF"> F  </i>
   <i type="logical" name="L2ORDER"> F  </i>
   <i type="logical" name="LDMP1"> F  </i>
   <i type="logical" name="LMP2LT"> F  </i>
   <i type="logical" name="LSMP2LT"> F  </i>
   <i type="logical" name="LGWLF"> F  </i>
   <i name="ENCUTGW">     -2.00000000</i>
   <i name="ENCUTGWSOFT">     -2.00000000</i>
   <i name="ENCUTLF">     -1.00000000</i>
   <i type="logical" name="LESF_SPLINES"> F  </i>
   <i type="int" name="LMAXMP2">    -1</i>
   <i name="SCISSOR">      0.00000000</i>
   <i type="int" name="NOMEGA">     0</i>
   <i type="int" name="NOMEGAR">     0</i>
   <i type="int" name="NBANDSGW">    -1</i>
   <i type="int" name="NBANDSO">    -1</i>
   <i type="int" name="NBANDSV">    -1</i>
   <i type="int" name="NELM">     1</i>
   <i type="int" name="NELMHF">     1</i>
   <i type="int" name="DIM">     3</i>
   <i type="int" name="IESPILON">     4</i>
   <i type="int" name="ANTIRES">     0</i>
   <i name="OMEGAMAX">    -30.00000000</i>
   <i name="OMEGAMIN">    -30.00000000</i>
   <i name="OMEGATL">   -200.00000000</i>
   <i type="int" name="OMEGAGRID">     0</i>
   <i name="CSHIFT">     -0.10000000</i>
   <i type="logical" name="LSELFENERGY"> F  </i>
   <i type="logical" name="LSPECTRAL"> F  </i>
   <i type="logical" name="LSPECTRALGW"> F  </i>
   <i type="logical" name="LSINGLES"> F  </i>
   <i type="logical" name="LFERMIGW"> F  </i>
   <i type="logical" name="ODDONLYGW"> F  </i>
   <i type="logical" name="EVENONLYGW"> F  </i>
   <i type="int" name="NKREDLFX">     1</i>
   <i type="int" name="NKREDLFY">     1</i>
   <i type="int" name="NKREDLFZ">     1</i>
   <i type="int" name="MAXMEM">  2800</i>
   <i type="int" name="TELESCOPE">     0</i>
   <i type="int" name="NTAUPAR">    -1</i>
   <i type="int" name="NOMEGAPAR">    -1</i>
   <i name="LAMBDA">      1.00000000</i>
  </separator>
  <separator name="External order field" >
   <i name="OFIELD_KAPPA">      0.00000000</i>
   <v name="OFIELD_K">      0.00000000      0.00000000      0.00000000</v>
   <i name="OFIELD_Q6_NEAR">      0.00000000</i>
   <i name="OFIELD_Q6_FAR">      0.00000000</i>
   <i name="OFIELD_A">      0.00000000</i>
  </separator>
 </parameters>
 <atominfo>
  <atoms>      16 </atoms>
  <types>       2 </types>
  <array name="atoms" >
   <dimension dim="1">ion</dimension>
   <field type="string">element</field>
   <field type="int">atomtype</field>
   <set>
    <rc><c>Cd</c><c>   1</c></rc>
    <rc><c>Cd</c><c>   1</c></rc>
    <rc><c>Cd</c><c>   1</c></rc>
    <rc><c>Cd</c><c>   1</c></rc>
    <rc><c>Cd</c><c>   1</c></rc>
    <rc><c>Cd</c><c>   1</c></rc>
    <rc><c>Cd</c><c>   1</c></rc>
    <rc><c>Cd</c><c>   1</c></rc>
    <rc><c>Te</c><c>   2</c></rc>
    <rc><c>Te</c><c>   2</c></rc>
    <rc><c>Te</c><c>   2</c></rc>
    <rc><c>Te</c><c>   2</c></rc>
    <rc><c>Te</c><c>   2</c></rc>
    <rc><c>Te</c><c>   2</c></rc>
    <rc><c>Te</c><c>   2</c></rc>
    <rc><c>Te</c><c>   2</c></rc>
   </set>
  </array>
  <array name="atomtypes" >
   <dimension dim="1">type</dimension>
   <field type="int">atomspertype</field>
   <field type="string">element</field>
   <field>mass</field>
   <field>valence</field>
   <field type="string">pseudopotential</field>
   <set>
    <rc><c>   8</c><c>Cd</c><c>    112.41100000</c><c>     12.00000000</c><c>  PAW_PBE Cd 06Sep2000                  </c></rc>
    <rc><c>   8</c><c>Te</c><c>    127.60000000</c><c>      6.00000000</c><c>  PAW_PBE Te 08Apr2002                  </c></rc>
   </set>
  </array>
 </atominfo>
 <structure name="initialpos" >
  <crystal>
   <varray name="basis" >
    <v>      -0.00000340       6.48458704       6.48458880 </v>
    <v>       6.48459448       0.00000454       6.48459324 </v>
    <v>       6.48460158       6.48459856       0.00000634 </v>
   </varray>
   <i name="volume">    545.35350099 </i>
   <varray name="rec_basis" >
    <v>      -0.07710592       0.07710588       0.07710588 </v>
    <v>       0.07710579      -0.07710590       0.07710592 </v>
    <v>       0.07710573       0.07710586      -0.07710580 </v>
   </varray>
  </crystal>
  <varray name="positions" >
   <v>       0.00000278       0.00000316       0.99999723 </v>
   <v>       0.50000278       0.00000316       0.99999723 </v>
   <v>       0.00000278       0.50000316       0.99999723 </v>
   <v>       0.50000278       0.50000316       0.99999723 </v>
   <v>       0.00000278       0.00000316       0.49999723 </v>
   <v>       0.50000278       0.00000316       0.49999723 </v>
   <v>       0.00000278       0.50000316       0.49999723 </v>
   <v>       0.50000278       0.50000316       0.49999723 </v>
   <v>       0.37390677       0.37499684       0.37500277 </v>
   <v>       0.87499722       0.37499684       0.37500277 </v>
   <v>       0.37499722       0.87499684       0.37500277 </v>
   <v>       0.87499722       0.87499684       0.37500277 </v>
   <v>       0.37499722       0.37499684       0.87500277 </v>
   <v>       0.87499722       0.37499684       0.87500277 </v>
   <v>       0.37499722       0.87499684       0.87500277 </v>
   <v>       0.87499722       0.87499684       0.87500277 </v>
  </varray>
 </structure>
 <calculation>
  <scstep>
   <time name="dav">   88.18   88.13</time>
   <time name="total">   88.53   88.48</time>
   <energy>
    <i name="alphaZ">    401.02640649 </i>
    <i name="ewald">  -8356.20736036 </i>
    <i name="hartreedc">  -4082.32840807 </i>
    <i name="XCdc">   -165.17682245 </i>
    <i name="pawpsdc">  11219.64626070 </i>
    <i name="pawaedc"> -10652.48958799 </i>
    <i name="eentropy">     -0.00026745 </i>
    <i name="bandstr">    452.92683378 </i>
    <i name="atom">  12129.66290356 </i>
    <i name="e_fr_energy">    947.05995821 </i>
    <i name="e_wo_entrp">    947.06022566 </i>
    <i name="e_0_energy">    947.06009194 </i>
   </energy>
  </scstep>
  <scstep>
   <time name="dav">   95.66   95.59</time>
   <time name="total">   95.66   95.59</time>
   <energy>
    <i name="e_fr_energy">      0.65466897 </i>
    <i name="e_wo_entrp">      0.65466897 </i>
    <i name="e_0_energy">      0.65466897 </i>
   </energy>
  </scstep>
  <scstep>
   <time name="dav">  103.90  103.83</time>
   <time name="total">  103.90  103.83</time>
   <energy>
    <i name="e_fr_energy">    -45.36382704 </i>
    <i name="e_wo_entrp">    -45.36382704 </i>
    <i name="e_0_energy">    -45.36382704 </i>
   </energy>
  </scstep>
  <scstep>
   <time name="dav">   99.48   99.41</time>
   <time name="total">   99.48   99.41</time>
   <energy>
    <i name="e_fr_energy">    -45.95485615 </i>
    <i name="e_wo_entrp">    -45.95485615 </i>
    <i name="e_0_energy">    -45.95485615 </i>
   </energy>
  </scstep>
  <scstep>
   <time name="dav">  103.39  103.32</time>
   <time name="total">  110.38  110.30</time>
   <energy>
    <i name="e_fr_energy">    -45.96152722 </i>
    <i name="e_wo_entrp">    -45.96152722 </i>
    <i name="e_0_energy">    -45.96152722 </i>
   </energy>
  </scstep>
  <scstep>
   <time name="dav">   92.88   92.81</time>
   <time name="total">  100.20  100.13</time>
   <energy>
    <i name="e_fr_energy">    -44.05159065 </i>
    <i name="e_wo_entrp">    -44.05159065 </i>
    <i name="e_0_energy">    -44.05159065 </i>
   </energy>
  </scstep>
  <scstep>
   <time name="dav">   97.24   97.16</time>
   <time name="total">  104.53  104.46</time>
   <energy>
    <i name="e_fr_energy">    -43.92467291 </i>
    <i name="e_wo_entrp">    -43.92467291 </i>
    <i name="e_0_energy">    -43.92467291 </i>
   </energy>
  </scstep>
  <scstep>
   <time name="dav">   93.46   93.39</time>
   <time name="total">  100.78  100.71</time>
   <energy>
    <i name="e_fr_energy">    -43.91736001 </i>
    <i name="e_wo_entrp">    -43.91736001 </i>
    <i name="e_0_energy">    -43.91736001 </i>
   </energy>
  </scstep>
  <scstep>
   <time name="dav">  100.68  100.60</time>
   <time name="total">  107.97  107.90</time>
   <energy>
    <i name="e_fr_energy">    -43.91756760 </i>
    <i name="e_wo_entrp">    -43.91756760 </i>
    <i name="e_0_energy">    -43.91756760 </i>
   </energy>
  </scstep>
  <scstep>
   <time name="dav">   95.70   95.63</time>
   <time name="total">  103.00  102.93</time>
   <energy>
    <i name="e_fr_energy">    -43.91724478 </i>
    <i name="e_wo_entrp">    -43.91724478 </i>
    <i name="e_0_energy">    -43.91724478 </i>
   </energy>
  </scstep>
  <scstep>
   <time name="dav">   98.69   98.62</time>
   <time name="total">  106.00  105.93</time>
   <energy>
    <i name="e_fr_energy">    -43.91739887 </i>
    <i name="e_wo_entrp">    -43.91739887 </i>
    <i name="e_0_energy">    -43.91739887 </i>
   </energy>
  </scstep>
  <scstep>
   <time name="dav">   98.50   98.42</time>
   <time name="total">  105.82  105.74</time>
   <energy>
    <i name="e_fr_energy">    -43.91738493 </i>
    <i name="e_wo_entrp">    -43.91738493 </i>
    <i name="e_0_energy">    -43.91738493 </i>
   </energy>
  </scstep>
  <scstep>
   <time name="dav">   98.01   97.93</time>
   <time name="total">  105.30  105.22</time>
   <energy>
    <i name="e_fr_energy">    -43.91738996 </i>
    <i name="e_wo_entrp">    -43.91738996 </i>
    <i name="e_0_energy">    -43.91738996 </i>
   </energy>
  </scstep>
  <scstep>
   <time name="dav">   94.44   94.37</time>
   <time name="total">  101.74  101.67</time>
   <energy>
    <i name="e_fr_energy">    -43.91738794 </i>
    <i name="e_wo_entrp">    -43.91738794 </i>
    <i name="e_0_energy">    -43.91738794 </i>
   </energy>
  </scstep>
  <scstep>
   <time name="dav">  102.95  102.88</time>
   <time name="total">  110.25  110.17</time>
   <energy>
    <i name="e_fr_energy">    -43.91738816 </i>
    <i name="e_wo_entrp">    -43.91738816 </i>
    <i name="e_0_energy">    -43.91738816 </i>
   </energy>
  </scstep>
  <scstep>
   <time name="dav">   95.82   95.75</time>
   <time name="total">  103.13  103.06</time>
   <energy>
    <i name="e_fr_energy">    -43.91738843 </i>
    <i name="e_wo_entrp">    -43.91738843 </i>
    <i name="e_0_energy">    -43.91738843 </i>
   </energy>
  </scstep>
  <scstep>
   <time name="dav">   96.59   96.52</time>
   <time name="total">  103.87  103.80</time>
   <energy>
    <i name="e_fr_energy">    -43.91738888 </i>
    <i name="e_wo_entrp">    -43.91738888 </i>
    <i name="e_0_energy">    -43.91738888 </i>
   </energy>
  </scstep>
  <scstep>
   <time name="dav">   85.81   85.75</time>
   <time name="total">   93.12   93.05</time>
   <energy>
    <i name="e_fr_energy">    -43.91738897 </i>
    <i name="e_wo_entrp">    -43.91738897 </i>
    <i name="e_0_energy">    -43.91738897 </i>
   </energy>
  </scstep>
  <scstep>
   <time name="dav">   96.13   96.06</time>
   <time name="total">  103.44  103.37</time>
   <energy>
    <i name="e_fr_energy">    -43.91738909 </i>
    <i name="e_wo_entrp">    -43.91738909 </i>
    <i name="e_0_energy">    -43.91738909 </i>
   </energy>
  </scstep>
  <scstep>
   <time name="dav">   95.64   95.57</time>
   <time name="total">  102.95  102.88</time>
   <energy>
    <i name="e_fr_energy">    -43.91738913 </i>
    <i name="e_wo_entrp">    -43.91738913 </i>
    <i name="e_0_energy">    -43.91738913 </i>
   </energy>
  </scstep>
  <scstep>
   <time name="dav">   70.25   70.20</time>
   <time name="total">   77.53   77.48</time>
   <energy>
    <i name="e_fr_energy">    -43.91738910 </i>
    <i name="e_wo_entrp">    -43.91738910 </i>
    <i name="e_0_energy">    -43.91738910 </i>
   </energy>
  </scstep>
  <scstep>
   <time name="dav">   66.89   66.84</time>
   <time name="total">   74.21   74.16</time>
   <energy>
    <i name="e_fr_energy">    -43.91738917 </i>
    <i name="e_wo_entrp">    -43.91738917 </i>
    <i name="e_0_energy">    -43.91738917 </i>
   </energy>
  </scstep>
  <scstep>
   <time name="dav">   69.97   69.92</time>
   <time name="total">   77.29   77.23</time>
   <energy>
    <i name="e_fr_energy">    -43.91738918 </i>
    <i name="e_wo_entrp">    -43.91738918 </i>
    <i name="e_0_energy">    -43.91738918 </i>
   </energy>
  </scstep>
  <scstep>
   <time name="dav">   67.05   67.00</time>
   <time name="total">   67.39   67.34</time>
   <energy>
    <i name="alphaZ">    401.02640649 </i>
    <i name="ewald">  -8356.20736036 </i>
    <i name="hartreedc">  -4019.33178678 </i>
    <i name="XCdc">   -165.52637697 </i>
    <i name="pawpsdc">  13729.15562615 </i>
    <i name="pawaedc"> -13159.40788288 </i>
    <i name="eentropy">     -0.00000000 </i>
    <i name="bandstr">   -603.28891839 </i>
    <i name="atom">  12129.66290356 </i>
    <i name="e_fr_energy">    -43.91738918 </i>
    <i name="e_wo_entrp">    -43.91738918 </i>
    <i name="e_0_energy">    -43.91738918 </i>
   </energy>
  </scstep>
  <structure>
   <crystal>
    <varray name="basis" >
     <v>      -0.00000340       6.48458704       6.48458880 </v>
     <v>       6.48459448       0.00000454       6.48459324 </v>
     <v>       6.48460158       6.48459856       0.00000634 </v>
    </varray>
    <i name="volume">    545.35350099 </i>
    <varray name="rec_basis" >
     <v>      -0.07710592       0.07710588       0.07710588 </v>
     <v>       0.07710579      -0.07710590       0.07710592 </v>
     <v>       0.07710573       0.07710586      -0.07710580 </v>
    </varray>
   </crystal>
   <varray name="positions" >
    <v>       0.00000278       0.00000316       0.99999723 </v>
    <v>       0.50000278       0.00000316       0.99999723 </v>
    <v>       0.00000278       0.50000316       0.99999723 </v>
    <v>       0.50000278       0.50000316       0.99999723 </v>
    <v>       0.00000278       0.00000316       0.49999723 </v>
    <v>       0.50000278       0.00000316       0.49999723 </v>
    <v>       0.00000278       0.50000316       0.49999723 </v>
    <v>       0.50000278       0.50000316       0.49999723 </v>
    <v>       0.37390677       0.37499684       0.37500277 </v>
    <v>       0.87499722       0.37499684       0.37500277 </v>
    <v>       0.37499722       0.87499684       0.37500277 </v>
    <v>       0.87499722       0.87499684       0.37500277 </v>
    <v>       0.37499722       0.37499684       0.87500277 </v>
    <v>       0.87499722       0.37499684       0.87500277 </v>
    <v>       0.37499722       0.87499684       0.87500277 </v>
    <v>       0.87499722       0.87499684       0.87500277 </v>
   </varray>
  </structure>
  <varray name="forces" >
   <v>      -0.00034655      -0.00002551      -0.00038102 </v>
   <v>       0.00030242      -0.00002592      -0.00038153 </v>
   <v>      -0.00001739       0.00030065      -0.00005876 </v>
   <v>       0.00002355      -0.00015919      -0.00057058 </v>
   <v>      -0.00001738       0.00029688      -0.00005484 </v>
   <v>       0.00002358      -0.00021442      -0.00051412 </v>
   <v>       0.01615834      -0.01628388      -0.01663861 </v>
   <v>      -0.01549965      -0.01574362      -0.01610001 </v>
   <v>      -0.00077389       0.04465035       0.04500580 </v>
   <v>       0.00001577      -0.00596077      -0.00560519 </v>
   <v>      -0.00308474      -0.00067058      -0.00249643 </v>
   <v>       0.00312767      -0.00285674      -0.00031588 </v>
   <v>      -0.00308467      -0.00285188      -0.00031480 </v>
   <v>       0.00312761      -0.00067124      -0.00250105 </v>
   <v>       0.00002530       0.00025185       0.00060743 </v>
   <v>       0.00002003      -0.00003598       0.00031959 </v>
  </varray>
  <varray name="stress" >
   <v>       2.13102270      -0.13560573      -0.12417218 </v>
   <v>      -0.13560592       2.12995781       0.00186920 </v>
   <v>      -0.12417213       0.00186906       2.13001708 </v>
  </varray>
  <energy>
   <i name="e_fr_energy">    -43.91738918 </i>
   <i name="e_wo_entrp">    -43.91738918 </i>
   <i name="e_0_energy">    -43.91738918 </i>
  </energy>
  <time name="totalsc"> 2425.30 2426.59</time>
  <eigenvalues>
   <array>
    <dimension dim="1">band</dimension>
    <dimension dim="2">kpoint</dimension>
    <dimension dim="3">spin</dimension>
    <field>eigene</field>
    <field>occ</field>
    <set>
     <set comment="spin 1">
      <set comment="kpoint 1">
       <r>   -9.0080    1.0000 </r>
       <r>   -8.6036    1.0000 </r>
       <r>   -8.6033    1.0000 </r>
       <r>   -8.6032    1.0000 </r>
       <r>   -8.6030    1.0000 </r>
       <r>   -8.4796    1.0000 </r>
       <r>   -8.4796    1.0000 </r>
       <r>   -8.4796    1.0000 </r>
       <r>   -6.0552    1.0000 </r>
       <r>   -6.0546    1.0000 </r>
       <r>   -6.0540    1.0000 </r>
       <r>   -5.9927    1.0000 </r>
       <r>   -5.9916    1.0000 </r>
       <r>   -5.9912    1.0000 </r>
       <r>   -5.9910    1.0000 </r>
       <r>   -5.9905    1.0000 </r>
       <r>   -5.9903    1.0000 </r>
       <r>   -5.9899    1.0000 </r>
       <r>   -5.9889    1.0000 </r>
       <r>   -5.8992    1.0000 </r>
       <r>   -5.8986    1.0000 </r>
       <r>   -5.8979    1.0000 </r>
       <r>   -5.8908    1.0000 </r>
       <r>   -5.8897    1.0000 </r>
       <r>   -5.8891    1.0000 </r>
       <r>   -5.8891    1.0000 </r>
       <r>   -5.8885    1.0000 </r>
       <r>   -5.8874    1.0000 </r>
       <r>   -5.7910    1.0000 </r>
       <r>   -5.7909    1.0000 </r>
       <r>   -5.7831    1.0000 </r>
       <r>   -5.7829    1.0000 </r>
       <r>   -5.7820    1.0000 </r>
       <r>   -5.7819    1.0000 </r>
       <r>   -5.7818    1.0000 </r>
       <r>   -5.7817    1.0000 </r>
       <r>   -5.7808    1.0000 </r>
       <r>   -5.7806    1.0000 </r>
       <r>   -5.7602    1.0000 </r>
       <r>   -5.7597    1.0000 </r>
       <r>   -5.7593    1.0000 </r>
       <r>   -5.4466    1.0000 </r>
       <r>   -5.4463    1.0000 </r>
       <r>   -5.4463    1.0000 </r>
       <r>   -5.4461    1.0000 </r>
       <r>   -5.3108    1.0000 </r>
       <r>   -5.3108    1.0000 </r>
       <r>   -5.3108    1.0000 </r>
       <r>   -2.2719    1.0000 </r>
       <r>   -2.2695    1.0000 </r>
       <r>   -2.2693    1.0000 </r>
       <r>   -2.2670    1.0000 </r>
       <r>   -2.1488    1.0000 </r>
       <r>   -2.1459    1.0000 </r>
       <r>   -2.1429    1.0000 </r>
       <r>    0.3139    1.0000 </r>
       <r>    0.3148    1.0000 </r>
       <r>    0.3150    1.0000 </r>
       <r>    0.3150    1.0000 </r>
       <r>    0.3151    1.0000 </r>
       <r>    0.3160    1.0000 </r>
       <r>    1.4107    1.0000 </r>
       <r>    1.4121    1.0000 </r>
       <r>    1.4139    1.0000 </r>
       <r>    1.4140    1.0000 </r>
       <r>    1.4141    1.0000 </r>
       <r>    1.4143    1.0000 </r>
       <r>    1.4161    1.0000 </r>
       <r>    1.4174    1.0000 </r>
       <r>    2.1941    1.0000 </r>
       <r>    2.1952    1.0000 </r>
       <r>    2.1963    1.0000 </r>
       <r>    2.8527    0.0000 </r>
       <r>    3.9234    0.0000 </r>
       <r>    3.9261    0.0000 </r>
       <r>    3.9262    0.0000 </r>
       <r>    3.9289    0.0000 </r>
       <r>    4.6892    0.0000 </r>
       <r>    4.6892    0.0000 </r>
       <r>    4.6893    0.0000 </r>
       <r>    4.7895    0.0000 </r>
       <r>    4.7940    0.0000 </r>
       <r>    4.7984    0.0000 </r>
       <r>    6.7417    0.0000 </r>
       <r>    6.7426    0.0000 </r>
       <r>    6.7435    0.0000 </r>
       <r>    7.3210    0.0000 </r>
       <r>    7.3222    0.0000 </r>
       <r>    7.3255    0.0000 </r>
       <r>    7.3259    0.0000 </r>
       <r>    7.3260    0.0000 </r>
       <r>    7.3264    0.0000 </r>
       <r>    7.3298    0.0000 </r>
       <r>    7.3310    0.0000 </r>
       <r>    9.1255    0.0000 </r>
       <r>    9.1266    0.0000 </r>
       <r>    9.1267    0.0000 </r>
       <r>    9.1279    0.0000 </r>
       <r>    9.4921    0.0000 </r>
       <r>   10.7105    0.0000 </r>
       <r>   10.7110    0.0000 </r>
       <r>   10.7110    0.0000 </r>
       <r>   10.7116    0.0000 </r>
       <r>   10.9085    0.0000 </r>
       <r>   10.9096    0.0000 </r>
       <r>   10.9108    0.0000 </r>
       <r>   11.2511    0.0000 </r>
       <r>   11.2559    0.0000 </r>
       <r>   11.2570    0.0000 </r>
       <r>   11.2571    0.0000 </r>
       <r>   11.2581    0.0000 </r>
       <r>   11.2631    0.0000 </r>
      </set>
      <set comment="kpoint 2">
       <r>   -8.9810    1.0000 </r>
       <r>   -8.6296    1.0000 </r>
       <r>   -8.5955    1.0000 </r>
       <r>   -8.5952    1.0000 </r>
       <r>   -8.5951    1.0000 </r>
       <r>   -8.4882    1.0000 </r>
       <r>   -8.4881    1.0000 </r>
       <r>   -8.4881    1.0000 </r>
       <r>   -6.0494    1.0000 </r>
       <r>   -6.0489    1.0000 </r>
       <r>   -6.0359    1.0000 </r>
       <r>   -5.9936    1.0000 </r>
       <r>   -5.9934    1.0000 </r>
       <r>   -5.9892    1.0000 </r>
       <r>   -5.9873    1.0000 </r>
       <r>   -5.9869    1.0000 </r>
       <r>   -5.9845    1.0000 </r>
       <r>   -5.9833    1.0000 </r>
       <r>   -5.9830    1.0000 </r>
       <r>   -5.9116    1.0000 </r>
       <r>   -5.9109    1.0000 </r>
       <r>   -5.9109    1.0000 </r>
       <r>   -5.8957    1.0000 </r>
       <r>   -5.8948    1.0000 </r>
       <r>   -5.8943    1.0000 </r>
       <r>   -5.8786    1.0000 </r>
       <r>   -5.8782    1.0000 </r>
       <r>   -5.8781    1.0000 </r>
       <r>   -5.7917    1.0000 </r>
       <r>   -5.7915    1.0000 </r>
       <r>   -5.7892    1.0000 </r>
       <r>   -5.7891    1.0000 </r>
       <r>   -5.7885    1.0000 </r>
       <r>   -5.7839    1.0000 </r>
       <r>   -5.7839    1.0000 </r>
       <r>   -5.7815    1.0000 </r>
       <r>   -5.7809    1.0000 </r>
       <r>   -5.7805    1.0000 </r>
       <r>   -5.7630    1.0000 </r>
       <r>   -5.7624    1.0000 </r>
       <r>   -5.7620    1.0000 </r>
       <r>   -5.5261    1.0000 </r>
       <r>   -5.4405    1.0000 </r>
       <r>   -5.4404    1.0000 </r>
       <r>   -5.4401    1.0000 </r>
       <r>   -5.3248    1.0000 </r>
       <r>   -5.3247    1.0000 </r>
       <r>   -5.3245    1.0000 </r>
       <r>   -2.2089    1.0000 </r>
       <r>   -2.2085    1.0000 </r>
       <r>   -2.2060    1.0000 </r>
       <r>   -2.0790    1.0000 </r>
       <r>   -2.0761    1.0000 </r>
       <r>   -2.0730    1.0000 </r>
       <r>   -2.0391    1.0000 </r>
       <r>    0.1947    1.0000 </r>
       <r>    0.1959    1.0000 </r>
       <r>    0.1964    1.0000 </r>
       <r>    0.3762    1.0000 </r>
       <r>    0.3762    1.0000 </r>
       <r>    0.3769    1.0000 </r>
       <r>    1.0962    1.0000 </r>
       <r>    1.0985    1.0000 </r>
       <r>    1.0992    1.0000 </r>
       <r>    1.3224    1.0000 </r>
       <r>    1.3238    1.0000 </r>
       <r>    1.3243    1.0000 </r>
       <r>    1.4473    1.0000 </r>
       <r>    1.4562    1.0000 </r>
       <r>    1.4581    1.0000 </r>
       <r>    2.1299    1.0000 </r>
       <r>    2.1310    1.0000 </r>
       <r>    3.4543    0.0000 </r>
       <r>    3.9591    0.0000 </r>
       <r>    4.2896    0.0000 </r>
       <r>    4.2924    0.0000 </r>
       <r>    4.2930    0.0000 </r>
       <r>    4.7742    0.0000 </r>
       <r>    4.7762    0.0000 </r>
       <r>    4.7768    0.0000 </r>
       <r>    5.0677    0.0000 </r>
       <r>    5.0696    0.0000 </r>
       <r>    5.0748    0.0000 </r>
       <r>    6.6888    0.0000 </r>
       <r>    6.8437    0.0000 </r>
       <r>    6.8447    0.0000 </r>
       <r>    7.0898    0.0000 </r>
       <r>    7.0901    0.0000 </r>
       <r>    7.0942    0.0000 </r>
       <r>    7.3433    0.0000 </r>
       <r>    7.3466    0.0000 </r>
       <r>    7.5218    0.0000 </r>
       <r>    7.5221    0.0000 </r>
       <r>    7.5257    0.0000 </r>
       <r>    8.9962    0.0000 </r>
       <r>    9.2276    0.0000 </r>
       <r>    9.2289    0.0000 </r>
       <r>    9.2292    0.0000 </r>
       <r>    9.8891    0.0000 </r>
       <r>   10.2526    0.0000 </r>
       <r>   10.2526    0.0000 </r>
       <r>   10.2548    0.0000 </r>
       <r>   10.3249    0.0000 </r>
       <r>   10.6480    0.0000 </r>
       <r>   10.6496    0.0000 </r>
       <r>   10.6498    0.0000 </r>
       <r>   10.7683    0.0000 </r>
       <r>   10.7709    0.0000 </r>
       <r>   10.7721    0.0000 </r>
       <r>   11.0458    0.0000 </r>
       <r>   11.0460    0.0000 </r>
       <r>   11.2481    0.0000 </r>
      </set>
      <set comment="kpoint 3">
       <r>   -8.9810    1.0000 </r>
       <r>   -8.6298    1.0000 </r>
       <r>   -8.5955    1.0000 </r>
       <r>   -8.5952    1.0000 </r>
       <r>   -8.5949    1.0000 </r>
       <r>   -8.4883    1.0000 </r>
       <r>   -8.4881    1.0000 </r>
       <r>   -8.4880    1.0000 </r>
       <r>   -6.0499    1.0000 </r>
       <r>   -6.0490    1.0000 </r>
       <r>   -6.0353    1.0000 </r>
       <r>   -5.9942    1.0000 </r>
       <r>   -5.9937    1.0000 </r>
       <r>   -5.9883    1.0000 </r>
       <r>   -5.9875    1.0000 </r>
       <r>   -5.9867    1.0000 </r>
       <r>   -5.9848    1.0000 </r>
       <r>   -5.9836    1.0000 </r>
       <r>   -5.9824    1.0000 </r>
       <r>   -5.9113    1.0000 </r>
       <r>   -5.9110    1.0000 </r>
       <r>   -5.9108    1.0000 </r>
       <r>   -5.8963    1.0000 </r>
       <r>   -5.8952    1.0000 </r>
       <r>   -5.8940    1.0000 </r>
       <r>   -5.8785    1.0000 </r>
       <r>   -5.8782    1.0000 </r>
       <r>   -5.8778    1.0000 </r>
       <r>   -5.7917    1.0000 </r>
       <r>   -5.7916    1.0000 </r>
       <r>   -5.7892    1.0000 </r>
       <r>   -5.7888    1.0000 </r>
       <r>   -5.7884    1.0000 </r>
       <r>   -5.7841    1.0000 </r>
       <r>   -5.7838    1.0000 </r>
       <r>   -5.7817    1.0000 </r>
       <r>   -5.7809    1.0000 </r>
       <r>   -5.7806    1.0000 </r>
       <r>   -5.7630    1.0000 </r>
       <r>   -5.7625    1.0000 </r>
       <r>   -5.7620    1.0000 </r>
       <r>   -5.5258    1.0000 </r>
       <r>   -5.4407    1.0000 </r>
       <r>   -5.4404    1.0000 </r>
       <r>   -5.4401    1.0000 </r>
       <r>   -5.3250    1.0000 </r>
       <r>   -5.3247    1.0000 </r>
       <r>   -5.3244    1.0000 </r>
       <r>   -2.2110    1.0000 </r>
       <r>   -2.2084    1.0000 </r>
       <r>   -2.2062    1.0000 </r>
       <r>   -2.0792    1.0000 </r>
       <r>   -2.0762    1.0000 </r>
       <r>   -2.0731    1.0000 </r>
       <r>   -2.0374    1.0000 </r>
       <r>    0.1949    1.0000 </r>
       <r>    0.1961    1.0000 </r>
       <r>    0.1972    1.0000 </r>
       <r>    0.3755    1.0000 </r>
       <r>    0.3761    1.0000 </r>
       <r>    0.3768    1.0000 </r>
       <r>    1.0975    1.0000 </r>
       <r>    1.0992    1.0000 </r>
       <r>    1.1008    1.0000 </r>
       <r>    1.3219    1.0000 </r>
       <r>    1.3223    1.0000 </r>
       <r>    1.3227    1.0000 </r>
       <r>    1.4483    1.0000 </r>
       <r>    1.4558    1.0000 </r>
       <r>    1.4591    1.0000 </r>
       <r>    2.1291    1.0000 </r>
       <r>    2.1310    1.0000 </r>
       <r>    3.4541    0.0000 </r>
       <r>    3.9576    0.0000 </r>
       <r>    4.2895    0.0000 </r>
       <r>    4.2921    0.0000 </r>
       <r>    4.2946    0.0000 </r>
       <r>    4.7727    0.0000 </r>
       <r>    4.7749    0.0000 </r>
       <r>    4.7772    0.0000 </r>
       <r>    5.0684    0.0000 </r>
       <r>    5.0714    0.0000 </r>
       <r>    5.0744    0.0000 </r>
       <r>    6.6881    0.0000 </r>
       <r>    6.8436    0.0000 </r>
       <r>    6.8454    0.0000 </r>
       <r>    7.0879    0.0000 </r>
       <r>    7.0897    0.0000 </r>
       <r>    7.0915    0.0000 </r>
       <r>    7.3414    0.0000 </r>
       <r>    7.3471    0.0000 </r>
       <r>    7.5252    0.0000 </r>
       <r>    7.5254    0.0000 </r>
       <r>    7.5258    0.0000 </r>
       <r>    8.9954    0.0000 </r>
       <r>    9.2276    0.0000 </r>
       <r>    9.2292    0.0000 </r>
       <r>    9.2307    0.0000 </r>
       <r>    9.8891    0.0000 </r>
       <r>   10.2522    0.0000 </r>
       <r>   10.2536    0.0000 </r>
       <r>   10.2549    0.0000 </r>
       <r>   10.3251    0.0000 </r>
       <r>   10.6469    0.0000 </r>
       <r>   10.6486    0.0000 </r>
       <r>   10.6502    0.0000 </r>
       <r>   10.7691    0.0000 </r>
       <r>   10.7715    0.0000 </r>
       <r>   10.7739    0.0000 </r>
       <r>   11.0461    0.0000 </r>
       <r>   11.0464    0.0000 </r>
       <r>   11.2471    0.0000 </r>
      </set>
      <set comment="kpoint 4">
       <r>   -8.9810    1.0000 </r>
       <r>   -8.6299    1.0000 </r>
       <r>   -8.5955    1.0000 </r>
       <r>   -8.5952    1.0000 </r>
       <r>   -8.5949    1.0000 </r>
       <r>   -8.4883    1.0000 </r>
       <r>   -8.4881    1.0000 </r>
       <r>   -8.4880    1.0000 </r>
       <r>   -6.0499    1.0000 </r>
       <r>   -6.0490    1.0000 </r>
       <r>   -6.0353    1.0000 </r>
       <r>   -5.9943    1.0000 </r>
       <r>   -5.9938    1.0000 </r>
       <r>   -5.9882    1.0000 </r>
       <r>   -5.9874    1.0000 </r>
       <r>   -5.9867    1.0000 </r>
       <r>   -5.9848    1.0000 </r>
       <r>   -5.9836    1.0000 </r>
       <r>   -5.9824    1.0000 </r>
       <r>   -5.9113    1.0000 </r>
       <r>   -5.9110    1.0000 </r>
       <r>   -5.9107    1.0000 </r>
       <r>   -5.8963    1.0000 </r>
       <r>   -5.8952    1.0000 </r>
       <r>   -5.8941    1.0000 </r>
       <r>   -5.8784    1.0000 </r>
       <r>   -5.8781    1.0000 </r>
       <r>   -5.8778    1.0000 </r>
       <r>   -5.7917    1.0000 </r>
       <r>   -5.7916    1.0000 </r>
       <r>   -5.7892    1.0000 </r>
       <r>   -5.7887    1.0000 </r>
       <r>   -5.7884    1.0000 </r>
       <r>   -5.7841    1.0000 </r>
       <r>   -5.7837    1.0000 </r>
       <r>   -5.7817    1.0000 </r>
       <r>   -5.7809    1.0000 </r>
       <r>   -5.7806    1.0000 </r>
       <r>   -5.7630    1.0000 </r>
       <r>   -5.7625    1.0000 </r>
       <r>   -5.7620    1.0000 </r>
       <r>   -5.5258    1.0000 </r>
       <r>   -5.4407    1.0000 </r>
       <r>   -5.4404    1.0000 </r>
       <r>   -5.4401    1.0000 </r>
       <r>   -5.3250    1.0000 </r>
       <r>   -5.3247    1.0000 </r>
       <r>   -5.3244    1.0000 </r>
       <r>   -2.2110    1.0000 </r>
       <r>   -2.2086    1.0000 </r>
       <r>   -2.2062    1.0000 </r>
       <r>   -2.0792    1.0000 </r>
       <r>   -2.0762    1.0000 </r>
       <r>   -2.0731    1.0000 </r>
       <r>   -2.0372    1.0000 </r>
       <r>    0.1950    1.0000 </r>
       <r>    0.1961    1.0000 </r>
       <r>    0.1973    1.0000 </r>
       <r>    0.3755    1.0000 </r>
       <r>    0.3761    1.0000 </r>
       <r>    0.3768    1.0000 </r>
       <r>    1.0976    1.0000 </r>
       <r>    1.0993    1.0000 </r>
       <r>    1.1009    1.0000 </r>
       <r>    1.3218    1.0000 </r>
       <r>    1.3221    1.0000 </r>
       <r>    1.3225    1.0000 </r>
       <r>    1.4484    1.0000 </r>
       <r>    1.4558    1.0000 </r>
       <r>    1.4591    1.0000 </r>
       <r>    2.1291    1.0000 </r>
       <r>    2.1310    1.0000 </r>
       <r>    3.4541    0.0000 </r>
       <r>    3.9575    0.0000 </r>
       <r>    4.2895    0.0000 </r>
       <r>    4.2921    0.0000 </r>
       <r>    4.2947    0.0000 </r>
       <r>    4.7726    0.0000 </r>
       <r>    4.7748    0.0000 </r>
       <r>    4.7771    0.0000 </r>
       <r>    5.0685    0.0000 </r>
       <r>    5.0715    0.0000 </r>
       <r>    5.0745    0.0000 </r>
       <r>    6.6880    0.0000 </r>
       <r>    6.8436    0.0000 </r>
       <r>    6.8454    0.0000 </r>
       <r>    7.0878    0.0000 </r>
       <r>    7.0896    0.0000 </r>
       <r>    7.0913    0.0000 </r>
       <r>    7.3414    0.0000 </r>
       <r>    7.3470    0.0000 </r>
       <r>    7.5254    0.0000 </r>
       <r>    7.5256    0.0000 </r>
       <r>    7.5260    0.0000 </r>
       <r>    8.9953    0.0000 </r>
       <r>    9.2277    0.0000 </r>
       <r>    9.2292    0.0000 </r>
       <r>    9.2308    0.0000 </r>
       <r>    9.8891    0.0000 </r>
       <r>   10.2522    0.0000 </r>
       <r>   10.2536    0.0000 </r>
       <r>   10.2549    0.0000 </r>
       <r>   10.3251    0.0000 </r>
       <r>   10.6469    0.0000 </r>
       <r>   10.6486    0.0000 </r>
       <r>   10.6502    0.0000 </r>
       <r>   10.7692    0.0000 </r>
       <r>   10.7716    0.0000 </r>
       <r>   10.7740    0.0000 </r>
       <r>   11.0461    0.0000 </r>
       <r>   11.0464    0.0000 </r>
       <r>   11.2469    0.0000 </r>
      </set>
      <set comment="kpoint 5">
       <r>   -8.9810    1.0000 </r>
       <r>   -8.6301    1.0000 </r>
       <r>   -8.5953    1.0000 </r>
       <r>   -8.5952    1.0000 </r>
       <r>   -8.5949    1.0000 </r>
       <r>   -8.4882    1.0000 </r>
       <r>   -8.4881    1.0000 </r>
       <r>   -8.4880    1.0000 </r>
       <r>   -6.0500    1.0000 </r>
       <r>   -6.0495    1.0000 </r>
       <r>   -6.0348    1.0000 </r>
       <r>   -5.9946    1.0000 </r>
       <r>   -5.9942    1.0000 </r>
       <r>   -5.9881    1.0000 </r>
       <r>   -5.9876    1.0000 </r>
       <r>   -5.9857    1.0000 </r>
       <r>   -5.9841    1.0000 </r>
       <r>   -5.9840    1.0000 </r>
       <r>   -5.9829    1.0000 </r>
       <r>   -5.9112    1.0000 </r>
       <r>   -5.9111    1.0000 </r>
       <r>   -5.9104    1.0000 </r>
       <r>   -5.8960    1.0000 </r>
       <r>   -5.8956    1.0000 </r>
       <r>   -5.8947    1.0000 </r>
       <r>   -5.8781    1.0000 </r>
       <r>   -5.8781    1.0000 </r>
       <r>   -5.8777    1.0000 </r>
       <r>   -5.7917    1.0000 </r>
       <r>   -5.7914    1.0000 </r>
       <r>   -5.7890    1.0000 </r>
       <r>   -5.7890    1.0000 </r>
       <r>   -5.7884    1.0000 </r>
       <r>   -5.7839    1.0000 </r>
       <r>   -5.7836    1.0000 </r>
       <r>   -5.7817    1.0000 </r>
       <r>   -5.7812    1.0000 </r>
       <r>   -5.7807    1.0000 </r>
       <r>   -5.7630    1.0000 </r>
       <r>   -5.7624    1.0000 </r>
       <r>   -5.7620    1.0000 </r>
       <r>   -5.5255    1.0000 </r>
       <r>   -5.4407    1.0000 </r>
       <r>   -5.4404    1.0000 </r>
       <r>   -5.4403    1.0000 </r>
       <r>   -5.3249    1.0000 </r>
       <r>   -5.3247    1.0000 </r>
       <r>   -5.3245    1.0000 </r>
       <r>   -2.2111    1.0000 </r>
       <r>   -2.2086    1.0000 </r>
       <r>   -2.2081    1.0000 </r>
       <r>   -2.0792    1.0000 </r>
       <r>   -2.0762    1.0000 </r>
       <r>   -2.0736    1.0000 </r>
       <r>   -2.0352    1.0000 </r>
       <r>    0.1959    1.0000 </r>
       <r>    0.1964    1.0000 </r>
       <r>    0.1976    1.0000 </r>
       <r>    0.3753    1.0000 </r>
       <r>    0.3760    1.0000 </r>
       <r>    0.3761    1.0000 </r>
       <r>    1.0992    1.0000 </r>
       <r>    1.1000    1.0000 </r>
       <r>    1.1023    1.0000 </r>
       <r>    1.3202    1.0000 </r>
       <r>    1.3206    1.0000 </r>
       <r>    1.3220    1.0000 </r>
       <r>    1.4494    1.0000 </r>
       <r>    1.4567    1.0000 </r>
       <r>    1.4586    1.0000 </r>
       <r>    2.1291    1.0000 </r>
       <r>    2.1302    1.0000 </r>
       <r>    3.4540    0.0000 </r>
       <r>    3.9560    0.0000 </r>
       <r>    4.2912    0.0000 </r>
       <r>    4.2918    0.0000 </r>
       <r>    4.2946    0.0000 </r>
       <r>    4.7730    0.0000 </r>
       <r>    4.7735    0.0000 </r>
       <r>    4.7755    0.0000 </r>
       <r>    5.0681    0.0000 </r>
       <r>    5.0733    0.0000 </r>
       <r>    5.0752    0.0000 </r>
       <r>    6.6873    0.0000 </r>
       <r>    6.8442    0.0000 </r>
       <r>    6.8453    0.0000 </r>
       <r>    7.0850    0.0000 </r>
       <r>    7.0892    0.0000 </r>
       <r>    7.0894    0.0000 </r>
       <r>    7.3418    0.0000 </r>
       <r>    7.3450    0.0000 </r>
       <r>    7.5254    0.0000 </r>
       <r>    7.5290    0.0000 </r>
       <r>    7.5293    0.0000 </r>
       <r>    8.9945    0.0000 </r>
       <r>    9.2292    0.0000 </r>
       <r>    9.2295    0.0000 </r>
       <r>    9.2309    0.0000 </r>
       <r>    9.8892    0.0000 </r>
       <r>   10.2524    0.0000 </r>
       <r>   10.2545    0.0000 </r>
       <r>   10.2545    0.0000 </r>
       <r>   10.3254    0.0000 </r>
       <r>   10.6474    0.0000 </r>
       <r>   10.6475    0.0000 </r>
       <r>   10.6492    0.0000 </r>
       <r>   10.7709    0.0000 </r>
       <r>   10.7722    0.0000 </r>
       <r>   10.7748    0.0000 </r>
       <r>   11.0464    0.0000 </r>
       <r>   11.0465    0.0000 </r>
       <r>   11.2462    0.0000 </r>
      </set>
      <set comment="kpoint 6">
       <r>   -8.9067    1.0000 </r>
       <r>   -8.7032    1.0000 </r>
       <r>   -8.5734    1.0000 </r>
       <r>   -8.5731    1.0000 </r>
       <r>   -8.5730    1.0000 </r>
       <r>   -8.5114    1.0000 </r>
       <r>   -8.5112    1.0000 </r>
       <r>   -8.5111    1.0000 </r>
       <r>   -6.0357    1.0000 </r>
       <r>   -6.0352    1.0000 </r>
       <r>   -6.0031    1.0000 </r>
       <r>   -6.0027    1.0000 </r>
       <r>   -5.9787    1.0000 </r>
       <r>   -5.9765    1.0000 </r>
       <r>   -5.9761    1.0000 </r>
       <r>   -5.9732    1.0000 </r>
       <r>   -5.9650    1.0000 </r>
       <r>   -5.9639    1.0000 </r>
       <r>   -5.9637    1.0000 </r>
       <r>   -5.9344    1.0000 </r>
       <r>   -5.9331    1.0000 </r>
       <r>   -5.9328    1.0000 </r>
       <r>   -5.9132    1.0000 </r>
       <r>   -5.9123    1.0000 </r>
       <r>   -5.9118    1.0000 </r>
       <r>   -5.8587    1.0000 </r>
       <r>   -5.8584    1.0000 </r>
       <r>   -5.8581    1.0000 </r>
       <r>   -5.8081    1.0000 </r>
       <r>   -5.8077    1.0000 </r>
       <r>   -5.8074    1.0000 </r>
       <r>   -5.7923    1.0000 </r>
       <r>   -5.7922    1.0000 </r>
       <r>   -5.7881    1.0000 </r>
       <r>   -5.7880    1.0000 </r>
       <r>   -5.7793    1.0000 </r>
       <r>   -5.7789    1.0000 </r>
       <r>   -5.7783    1.0000 </r>
       <r>   -5.7691    1.0000 </r>
       <r>   -5.7685    1.0000 </r>
       <r>   -5.7681    1.0000 </r>
       <r>   -5.6967    1.0000 </r>
       <r>   -5.4227    1.0000 </r>
       <r>   -5.4226    1.0000 </r>
       <r>   -5.4223    1.0000 </r>
       <r>   -5.3578    1.0000 </r>
       <r>   -5.3576    1.0000 </r>
       <r>   -5.3573    1.0000 </r>
       <r>   -2.0564    1.0000 </r>
       <r>   -2.0557    1.0000 </r>
       <r>   -2.0530    1.0000 </r>
       <r>   -1.9416    1.0000 </r>
       <r>   -1.9394    1.0000 </r>
       <r>   -1.9361    1.0000 </r>
       <r>   -1.4246    1.0000 </r>
       <r>    0.0116    1.0000 </r>
       <r>    0.0132    1.0000 </r>
       <r>    0.0137    1.0000 </r>
       <r>    0.4218    1.0000 </r>
       <r>    0.5200    1.0000 </r>
       <r>    0.5222    1.0000 </r>
       <r>    0.5227    1.0000 </r>
       <r>    0.5499    1.0000 </r>
       <r>    0.5501    1.0000 </r>
       <r>    0.5509    1.0000 </r>
       <r>    1.0898    1.0000 </r>
       <r>    1.0909    1.0000 </r>
       <r>    1.0914    1.0000 </r>
       <r>    1.5796    1.0000 </r>
       <r>    1.5814    1.0000 </r>
       <r>    1.9644    1.0000 </r>
       <r>    1.9657    1.0000 </r>
       <r>    3.9734    0.0000 </r>
       <r>    4.0389    0.0000 </r>
       <r>    4.9001    0.0000 </r>
       <r>    4.9032    0.0000 </r>
       <r>    4.9038    0.0000 </r>
       <r>    4.9333    0.0000 </r>
       <r>    4.9360    0.0000 </r>
       <r>    4.9369    0.0000 </r>
       <r>    5.8265    0.0000 </r>
       <r>    5.8273    0.0000 </r>
       <r>    5.8333    0.0000 </r>
       <r>    6.8184    0.0000 </r>
       <r>    6.8193    0.0000 </r>
       <r>    6.8250    0.0000 </r>
       <r>    6.8401    0.0000 </r>
       <r>    7.0816    0.0000 </r>
       <r>    7.0832    0.0000 </r>
       <r>    7.3634    0.0000 </r>
       <r>    7.3664    0.0000 </r>
       <r>    8.0753    0.0000 </r>
       <r>    8.0759    0.0000 </r>
       <r>    8.0790    0.0000 </r>
       <r>    8.3530    0.0000 </r>
       <r>    8.6881    0.0000 </r>
       <r>    8.6904    0.0000 </r>
       <r>    8.6907    0.0000 </r>
       <r>    9.0924    0.0000 </r>
       <r>    9.0930    0.0000 </r>
       <r>    9.0945    0.0000 </r>
       <r>    9.8350    0.0000 </r>
       <r>    9.8365    0.0000 </r>
       <r>    9.8384    0.0000 </r>
       <r>   10.1210    0.0000 </r>
       <r>   10.4948    0.0000 </r>
       <r>   10.6147    0.0000 </r>
       <r>   10.6148    0.0000 </r>
       <r>   10.9079    0.0000 </r>
       <r>   10.9098    0.0000 </r>
       <r>   10.9100    0.0000 </r>
       <r>   11.0223    0.0000 </r>
      </set>
      <set comment="kpoint 7">
       <r>   -8.9067    1.0000 </r>
       <r>   -8.7033    1.0000 </r>
       <r>   -8.5734    1.0000 </r>
       <r>   -8.5731    1.0000 </r>
       <r>   -8.5728    1.0000 </r>
       <r>   -8.5115    1.0000 </r>
       <r>   -8.5112    1.0000 </r>
       <r>   -8.5110    1.0000 </r>
       <r>   -6.0362    1.0000 </r>
       <r>   -6.0354    1.0000 </r>
       <r>   -6.0037    1.0000 </r>
       <r>   -6.0031    1.0000 </r>
       <r>   -5.9775    1.0000 </r>
       <r>   -5.9767    1.0000 </r>
       <r>   -5.9761    1.0000 </r>
       <r>   -5.9728    1.0000 </r>
       <r>   -5.9654    1.0000 </r>
       <r>   -5.9642    1.0000 </r>
       <r>   -5.9631    1.0000 </r>
       <r>   -5.9337    1.0000 </r>
       <r>   -5.9333    1.0000 </r>
       <r>   -5.9329    1.0000 </r>
       <r>   -5.9138    1.0000 </r>
       <r>   -5.9127    1.0000 </r>
       <r>   -5.9115    1.0000 </r>
       <r>   -5.8587    1.0000 </r>
       <r>   -5.8583    1.0000 </r>
       <r>   -5.8579    1.0000 </r>
       <r>   -5.8081    1.0000 </r>
       <r>   -5.8077    1.0000 </r>
       <r>   -5.8072    1.0000 </r>
       <r>   -5.7922    1.0000 </r>
       <r>   -5.7920    1.0000 </r>
       <r>   -5.7882    1.0000 </r>
       <r>   -5.7880    1.0000 </r>
       <r>   -5.7794    1.0000 </r>
       <r>   -5.7788    1.0000 </r>
       <r>   -5.7784    1.0000 </r>
       <r>   -5.7691    1.0000 </r>
       <r>   -5.7686    1.0000 </r>
       <r>   -5.7681    1.0000 </r>
       <r>   -5.6964    1.0000 </r>
       <r>   -5.4229    1.0000 </r>
       <r>   -5.4226    1.0000 </r>
       <r>   -5.4222    1.0000 </r>
       <r>   -5.3580    1.0000 </r>
       <r>   -5.3576    1.0000 </r>
       <r>   -5.3571    1.0000 </r>
       <r>   -2.0586    1.0000 </r>
       <r>   -2.0558    1.0000 </r>
       <r>   -2.0532    1.0000 </r>
       <r>   -1.9427    1.0000 </r>
       <r>   -1.9396    1.0000 </r>
       <r>   -1.9363    1.0000 </r>
       <r>   -1.4229    1.0000 </r>
       <r>    0.0121    1.0000 </r>
       <r>    0.0138    1.0000 </r>
       <r>    0.0154    1.0000 </r>
       <r>    0.4230    1.0000 </r>
       <r>    0.5210    1.0000 </r>
       <r>    0.5230    1.0000 </r>
       <r>    0.5249    1.0000 </r>
       <r>    0.5493    1.0000 </r>
       <r>    0.5498    1.0000 </r>
       <r>    0.5505    1.0000 </r>
       <r>    1.0893    1.0000 </r>
       <r>    1.0897    1.0000 </r>
       <r>    1.0902    1.0000 </r>
       <r>    1.5791    1.0000 </r>
       <r>    1.5821    1.0000 </r>
       <r>    1.9637    1.0000 </r>
       <r>    1.9659    1.0000 </r>
       <r>    3.9728    0.0000 </r>
       <r>    4.0375    0.0000 </r>
       <r>    4.8989    0.0000 </r>
       <r>    4.9025    0.0000 </r>
       <r>    4.9054    0.0000 </r>
       <r>    4.9318    0.0000 </r>
       <r>    4.9345    0.0000 </r>
       <r>    4.9379    0.0000 </r>
       <r>    5.8263    0.0000 </r>
       <r>    5.8295    0.0000 </r>
       <r>    5.8326    0.0000 </r>
       <r>    6.8169    0.0000 </r>
       <r>    6.8197    0.0000 </r>
       <r>    6.8224    0.0000 </r>
       <r>    6.8393    0.0000 </r>
       <r>    7.0809    0.0000 </r>
       <r>    7.0837    0.0000 </r>
       <r>    7.3616    0.0000 </r>
       <r>    7.3668    0.0000 </r>
       <r>    8.0783    0.0000 </r>
       <r>    8.0787    0.0000 </r>
       <r>    8.0792    0.0000 </r>
       <r>    8.3526    0.0000 </r>
       <r>    8.6889    0.0000 </r>
       <r>    8.6910    0.0000 </r>
       <r>    8.6930    0.0000 </r>
       <r>    9.0921    0.0000 </r>
       <r>    9.0938    0.0000 </r>
       <r>    9.0955    0.0000 </r>
       <r>    9.8367    0.0000 </r>
       <r>    9.8380    0.0000 </r>
       <r>    9.8394    0.0000 </r>
       <r>   10.1208    0.0000 </r>
       <r>   10.4946    0.0000 </r>
       <r>   10.6152    0.0000 </r>
       <r>   10.6153    0.0000 </r>
       <r>   10.9061    0.0000 </r>
       <r>   10.9080    0.0000 </r>
       <r>   10.9100    0.0000 </r>
       <r>   11.0241    0.0000 </r>
      </set>
      <set comment="kpoint 8">
       <r>   -8.9067    1.0000 </r>
       <r>   -8.7034    1.0000 </r>
       <r>   -8.5734    1.0000 </r>
       <r>   -8.5731    1.0000 </r>
       <r>   -8.5728    1.0000 </r>
       <r>   -8.5115    1.0000 </r>
       <r>   -8.5112    1.0000 </r>
       <r>   -8.5110    1.0000 </r>
       <r>   -6.0362    1.0000 </r>
       <r>   -6.0354    1.0000 </r>
       <r>   -6.0037    1.0000 </r>
       <r>   -6.0031    1.0000 </r>
       <r>   -5.9775    1.0000 </r>
       <r>   -5.9767    1.0000 </r>
       <r>   -5.9761    1.0000 </r>
       <r>   -5.9727    1.0000 </r>
       <r>   -5.9654    1.0000 </r>
       <r>   -5.9643    1.0000 </r>
       <r>   -5.9631    1.0000 </r>
       <r>   -5.9337    1.0000 </r>
       <r>   -5.9333    1.0000 </r>
       <r>   -5.9328    1.0000 </r>
       <r>   -5.9138    1.0000 </r>
       <r>   -5.9127    1.0000 </r>
       <r>   -5.9115    1.0000 </r>
       <r>   -5.8587    1.0000 </r>
       <r>   -5.8583    1.0000 </r>
       <r>   -5.8578    1.0000 </r>
       <r>   -5.8081    1.0000 </r>
       <r>   -5.8077    1.0000 </r>
       <r>   -5.8072    1.0000 </r>
       <r>   -5.7922    1.0000 </r>
       <r>   -5.7920    1.0000 </r>
       <r>   -5.7882    1.0000 </r>
       <r>   -5.7880    1.0000 </r>
       <r>   -5.7794    1.0000 </r>
       <r>   -5.7788    1.0000 </r>
       <r>   -5.7784    1.0000 </r>
       <r>   -5.7691    1.0000 </r>
       <r>   -5.7686    1.0000 </r>
       <r>   -5.7681    1.0000 </r>
       <r>   -5.6963    1.0000 </r>
       <r>   -5.4229    1.0000 </r>
       <r>   -5.4226    1.0000 </r>
       <r>   -5.4222    1.0000 </r>
       <r>   -5.3580    1.0000 </r>
       <r>   -5.3576    1.0000 </r>
       <r>   -5.3571    1.0000 </r>
       <r>   -2.0586    1.0000 </r>
       <r>   -2.0559    1.0000 </r>
       <r>   -2.0533    1.0000 </r>
       <r>   -1.9428    1.0000 </r>
       <r>   -1.9396    1.0000 </r>
       <r>   -1.9364    1.0000 </r>
       <r>   -1.4228    1.0000 </r>
       <r>    0.0122    1.0000 </r>
       <r>    0.0139    1.0000 </r>
       <r>    0.0155    1.0000 </r>
       <r>    0.4231    1.0000 </r>
       <r>    0.5211    1.0000 </r>
       <r>    0.5231    1.0000 </r>
       <r>    0.5251    1.0000 </r>
       <r>    0.5492    1.0000 </r>
       <r>    0.5497    1.0000 </r>
       <r>    0.5504    1.0000 </r>
       <r>    1.0892    1.0000 </r>
       <r>    1.0896    1.0000 </r>
       <r>    1.0901    1.0000 </r>
       <r>    1.5791    1.0000 </r>
       <r>    1.5822    1.0000 </r>
       <r>    1.9637    1.0000 </r>
       <r>    1.9659    1.0000 </r>
       <r>    3.9727    0.0000 </r>
       <r>    4.0374    0.0000 </r>
       <r>    4.8989    0.0000 </r>
       <r>    4.9025    0.0000 </r>
       <r>    4.9054    0.0000 </r>
       <r>    4.9318    0.0000 </r>
       <r>    4.9344    0.0000 </r>
       <r>    4.9378    0.0000 </r>
       <r>    5.8264    0.0000 </r>
       <r>    5.8295    0.0000 </r>
       <r>    5.8326    0.0000 </r>
       <r>    6.8167    0.0000 </r>
       <r>    6.8195    0.0000 </r>
       <r>    6.8222    0.0000 </r>
       <r>    6.8393    0.0000 </r>
       <r>    7.0809    0.0000 </r>
       <r>    7.0837    0.0000 </r>
       <r>    7.3616    0.0000 </r>
       <r>    7.3668    0.0000 </r>
       <r>    8.0784    0.0000 </r>
       <r>    8.0789    0.0000 </r>
       <r>    8.0794    0.0000 </r>
       <r>    8.3526    0.0000 </r>
       <r>    8.6890    0.0000 </r>
       <r>    8.6911    0.0000 </r>
       <r>    8.6931    0.0000 </r>
       <r>    9.0922    0.0000 </r>
       <r>    9.0938    0.0000 </r>
       <r>    9.0955    0.0000 </r>
       <r>    9.8368    0.0000 </r>
       <r>    9.8381    0.0000 </r>
       <r>    9.8395    0.0000 </r>
       <r>   10.1208    0.0000 </r>
       <r>   10.4946    0.0000 </r>
       <r>   10.6152    0.0000 </r>
       <r>   10.6154    0.0000 </r>
       <r>   10.9060    0.0000 </r>
       <r>   10.9079    0.0000 </r>
       <r>   10.9099    0.0000 </r>
       <r>   11.0238    0.0000 </r>
      </set>
      <set comment="kpoint 9">
       <r>   -8.9068    1.0000 </r>
       <r>   -8.7035    1.0000 </r>
       <r>   -8.5732    1.0000 </r>
       <r>   -8.5731    1.0000 </r>
       <r>   -8.5728    1.0000 </r>
       <r>   -8.5113    1.0000 </r>
       <r>   -8.5112    1.0000 </r>
       <r>   -8.5111    1.0000 </r>
       <r>   -6.0364    1.0000 </r>
       <r>   -6.0359    1.0000 </r>
       <r>   -6.0039    1.0000 </r>
       <r>   -6.0036    1.0000 </r>
       <r>   -5.9773    1.0000 </r>
       <r>   -5.9768    1.0000 </r>
       <r>   -5.9755    1.0000 </r>
       <r>   -5.9721    1.0000 </r>
       <r>   -5.9649    1.0000 </r>
       <r>   -5.9646    1.0000 </r>
       <r>   -5.9635    1.0000 </r>
       <r>   -5.9337    1.0000 </r>
       <r>   -5.9334    1.0000 </r>
       <r>   -5.9320    1.0000 </r>
       <r>   -5.9134    1.0000 </r>
       <r>   -5.9131    1.0000 </r>
       <r>   -5.9122    1.0000 </r>
       <r>   -5.8584    1.0000 </r>
       <r>   -5.8582    1.0000 </r>
       <r>   -5.8578    1.0000 </r>
       <r>   -5.8079    1.0000 </r>
       <r>   -5.8076    1.0000 </r>
       <r>   -5.8072    1.0000 </r>
       <r>   -5.7922    1.0000 </r>
       <r>   -5.7922    1.0000 </r>
       <r>   -5.7879    1.0000 </r>
       <r>   -5.7878    1.0000 </r>
       <r>   -5.7795    1.0000 </r>
       <r>   -5.7791    1.0000 </r>
       <r>   -5.7785    1.0000 </r>
       <r>   -5.7691    1.0000 </r>
       <r>   -5.7685    1.0000 </r>
       <r>   -5.7682    1.0000 </r>
       <r>   -5.6959    1.0000 </r>
       <r>   -5.4229    1.0000 </r>
       <r>   -5.4226    1.0000 </r>
       <r>   -5.4225    1.0000 </r>
       <r>   -5.3579    1.0000 </r>
       <r>   -5.3576    1.0000 </r>
       <r>   -5.3574    1.0000 </r>
       <r>   -2.0589    1.0000 </r>
       <r>   -2.0560    1.0000 </r>
       <r>   -2.0553    1.0000 </r>
       <r>   -1.9430    1.0000 </r>
       <r>   -1.9398    1.0000 </r>
       <r>   -1.9377    1.0000 </r>
       <r>   -1.4211    1.0000 </r>
       <r>    0.0140    1.0000 </r>
       <r>    0.0144    1.0000 </r>
       <r>    0.0161    1.0000 </r>
       <r>    0.4243    1.0000 </r>
       <r>    0.5231    1.0000 </r>
       <r>    0.5239    1.0000 </r>
       <r>    0.5263    1.0000 </r>
       <r>    0.5489    1.0000 </r>
       <r>    0.5495    1.0000 </r>
       <r>    0.5496    1.0000 </r>
       <r>    1.0880    1.0000 </r>
       <r>    1.0885    1.0000 </r>
       <r>    1.0895    1.0000 </r>
       <r>    1.5799    1.0000 </r>
       <r>    1.5816    1.0000 </r>
       <r>    1.9639    1.0000 </r>
       <r>    1.9652    1.0000 </r>
       <r>    3.9720    0.0000 </r>
       <r>    4.0361    0.0000 </r>
       <r>    4.9010    0.0000 </r>
       <r>    4.9018    0.0000 </r>
       <r>    4.9048    0.0000 </r>
       <r>    4.9323    0.0000 </r>
       <r>    4.9329    0.0000 </r>
       <r>    4.9357    0.0000 </r>
       <r>    5.8257    0.0000 </r>
       <r>    5.8317    0.0000 </r>
       <r>    5.8326    0.0000 </r>
       <r>    6.8134    0.0000 </r>
       <r>    6.8199    0.0000 </r>
       <r>    6.8208    0.0000 </r>
       <r>    6.8390    0.0000 </r>
       <r>    7.0815    0.0000 </r>
       <r>    7.0831    0.0000 </r>
       <r>    7.3620    0.0000 </r>
       <r>    7.3650    0.0000 </r>
       <r>    8.0786    0.0000 </r>
       <r>    8.0818    0.0000 </r>
       <r>    8.0823    0.0000 </r>
       <r>    8.3522    0.0000 </r>
       <r>    8.6914    0.0000 </r>
       <r>    8.6917    0.0000 </r>
       <r>    8.6940    0.0000 </r>
       <r>    9.0933    0.0000 </r>
       <r>    9.0946    0.0000 </r>
       <r>    9.0952    0.0000 </r>
       <r>    9.8377    0.0000 </r>
       <r>    9.8397    0.0000 </r>
       <r>    9.8412    0.0000 </r>
       <r>   10.1206    0.0000 </r>
       <r>   10.4944    0.0000 </r>
       <r>   10.6157    0.0000 </r>
       <r>   10.6158    0.0000 </r>
       <r>   10.9059    0.0000 </r>
       <r>   10.9061    0.0000 </r>
       <r>   10.9081    0.0000 </r>
       <r>   11.0236    0.0000 </r>
      </set>
      <set comment="kpoint 10">
       <r>   -8.8054    1.0000 </r>
       <r>   -8.8042    1.0000 </r>
       <r>   -8.5430    1.0000 </r>
       <r>   -8.5429    1.0000 </r>
       <r>   -8.5427    1.0000 </r>
       <r>   -8.5422    1.0000 </r>
       <r>   -8.5419    1.0000 </r>
       <r>   -8.5419    1.0000 </r>
       <r>   -6.0191    1.0000 </r>
       <r>   -6.0191    1.0000 </r>
       <r>   -6.0175    1.0000 </r>
       <r>   -6.0168    1.0000 </r>
       <r>   -5.9608    1.0000 </r>
       <r>   -5.9577    1.0000 </r>
       <r>   -5.9577    1.0000 </r>
       <r>   -5.9574    1.0000 </r>
       <r>   -5.9571    1.0000 </r>
       <r>   -5.9563    1.0000 </r>
       <r>   -5.9392    1.0000 </r>
       <r>   -5.9392    1.0000 </r>
       <r>   -5.9383    1.0000 </r>
       <r>   -5.9381    1.0000 </r>
       <r>   -5.9372    1.0000 </r>
       <r>   -5.9355    1.0000 </r>
       <r>   -5.8605    1.0000 </r>
       <r>   -5.8591    1.0000 </r>
       <r>   -5.8341    1.0000 </r>
       <r>   -5.8339    1.0000 </r>
       <r>   -5.8333    1.0000 </r>
       <r>   -5.8330    1.0000 </r>
       <r>   -5.8321    1.0000 </r>
       <r>   -5.8321    1.0000 </r>
       <r>   -5.7922    1.0000 </r>
       <r>   -5.7922    1.0000 </r>
       <r>   -5.7906    1.0000 </r>
       <r>   -5.7905    1.0000 </r>
       <r>   -5.7758    1.0000 </r>
       <r>   -5.7757    1.0000 </r>
       <r>   -5.7748    1.0000 </r>
       <r>   -5.7746    1.0000 </r>
       <r>   -5.7734    1.0000 </r>
       <r>   -5.7734    1.0000 </r>
       <r>   -5.3944    1.0000 </r>
       <r>   -5.3943    1.0000 </r>
       <r>   -5.3939    1.0000 </r>
       <r>   -5.3933    1.0000 </r>
       <r>   -5.3929    1.0000 </r>
       <r>   -5.3929    1.0000 </r>
       <r>   -1.9198    1.0000 </r>
       <r>   -1.9176    1.0000 </r>
       <r>   -1.9175    1.0000 </r>
       <r>   -1.9169    1.0000 </r>
       <r>   -1.9166    1.0000 </r>
       <r>   -1.9103    1.0000 </r>
       <r>   -0.5693    1.0000 </r>
       <r>   -0.5661    1.0000 </r>
       <r>    0.0849    1.0000 </r>
       <r>    0.0888    1.0000 </r>
[...]
       <r>   -5.8192    1.0000 </r>
       <r>   -5.8191    1.0000 </r>
       <r>   -5.8119    1.0000 </r>
       <r>   -5.8110    1.0000 </r>
       <r>   -5.7910    1.0000 </r>
       <r>   -5.7900    1.0000 </r>
       <r>   -5.7897    1.0000 </r>
       <r>   -5.7890    1.0000 </r>
       <r>   -5.7870    1.0000 </r>
       <r>   -5.7858    1.0000 </r>
       <r>   -5.7778    1.0000 </r>
       <r>   -5.7776    1.0000 </r>
       <r>   -5.7442    1.0000 </r>
       <r>   -5.7438    1.0000 </r>
       <r>   -5.6617    1.0000 </r>
       <r>   -5.6616    1.0000 </r>
       <r>   -5.3778    1.0000 </r>
       <r>   -5.3772    1.0000 </r>
       <r>   -5.2672    1.0000 </r>
       <r>   -5.2672    1.0000 </r>
       <r>   -1.9844    1.0000 </r>
       <r>   -1.9827    1.0000 </r>
       <r>   -1.8388    1.0000 </r>
       <r>   -1.8364    1.0000 </r>
       <r>   -1.1459    1.0000 </r>
       <r>   -1.1458    1.0000 </r>
       <r>   -0.7213    1.0000 </r>
       <r>   -0.7192    1.0000 </r>
       <r>   -0.3257    1.0000 </r>
       <r>   -0.3246    1.0000 </r>
       <r>   -0.2674    1.0000 </r>
       <r>   -0.2668    1.0000 </r>
       <r>    0.3885    1.0000 </r>
       <r>    0.3901    1.0000 </r>
       <r>    0.4550    1.0000 </r>
       <r>    0.4565    1.0000 </r>
       <r>    0.8946    1.0000 </r>
       <r>    0.8948    1.0000 </r>
       <r>    0.9589    1.0000 </r>
       <r>    0.9607    1.0000 </r>
       <r>    1.2484    1.0000 </r>
       <r>    1.2501    1.0000 </r>
       <r>    1.4512    1.0000 </r>
       <r>    1.4517    1.0000 </r>
       <r>    5.2074    0.0000 </r>
       <r>    5.2075    0.0000 </r>
       <r>    5.2654    0.0000 </r>
       <r>    5.2684    0.0000 </r>
       <r>    5.5275    0.0000 </r>
       <r>    5.5314    0.0000 </r>
       <r>    5.7079    0.0000 </r>
       <r>    5.7079    0.0000 </r>
       <r>    6.0380    0.0000 </r>
       <r>    6.0392    0.0000 </r>
       <r>    6.5957    0.0000 </r>
       <r>    6.5967    0.0000 </r>
       <r>    6.9658    0.0000 </r>
       <r>    6.9661    0.0000 </r>
       <r>    7.2032    0.0000 </r>
       <r>    7.2033    0.0000 </r>
       <r>    7.4222    0.0000 </r>
       <r>    7.4252    0.0000 </r>
       <r>    7.5455    0.0000 </r>
       <r>    7.5462    0.0000 </r>
       <r>    7.5849    0.0000 </r>
       <r>    7.5876    0.0000 </r>
       <r>    7.9005    0.0000 </r>
       <r>    7.9029    0.0000 </r>
       <r>    8.2677    0.0000 </r>
       <r>    8.2705    0.0000 </r>
       <r>    8.5281    0.0000 </r>
       <r>    8.5285    0.0000 </r>
       <r>    9.0240    0.0000 </r>
       <r>    9.0255    0.0000 </r>
       <r>    9.3055    0.0000 </r>
       <r>    9.3069    0.0000 </r>
       <r>    9.6023    0.0000 </r>
       <r>    9.6027    0.0000 </r>
       <r>    9.9515    0.0000 </r>
       <r>    9.9539    0.0000 </r>
       <r>   10.1011    0.0000 </r>
       <r>   10.1039    0.0000 </r>
       <r>   10.7920    0.0000 </r>
       <r>   10.7924    0.0000 </r>
      </set>
     </set>
    </set>
   </array>
  </eigenvalues>
  <separator name="orbital magnetization" >
   <v name="MAGDIPOLOUT">      0.00000000      0.00000000      0.00000000</v>
  </separator>
  <dos>
   <i name="efermi">      2.23909894 </i>
   <total>
    <array>
     <dimension dim="1">gridpoints</dimension>
     <dimension dim="2">spin</dimension>
     <field>energy</field>
     <field>total</field>
     <field>integrated</field>
     <set>
      <set comment="spin 1">
       <r>   -10.0400     0.0000     0.0000 </r>
       <r>    -9.9643     0.0000     0.0000 </r>
       <r>    -9.8886     0.0000     0.0000 </r>
       <r>    -9.8130     0.0000     0.0000 </r>
       <r>    -9.7373     0.0000     0.0000 </r>
       <r>    -9.6616     0.0000     0.0000 </r>
       <r>    -9.5859     0.0000     0.0000 </r>
       <r>    -9.5102     0.0000     0.0000 </r>
       <r>    -9.4346     0.0000     0.0000 </r>
       <r>    -9.3589     0.0000     0.0000 </r>
       <r>    -9.2832     0.0000     0.0000 </r>
       <r>    -9.2075     0.0000     0.0000 </r>
       <r>    -9.1318     0.0000     0.0000 </r>
       <r>    -9.0562     0.0000     0.0000 </r>
       <r>    -8.9805     0.7232     0.0547 </r>
       <r>    -8.9048     5.7928     0.4931 </r>
       <r>    -8.8291     7.3303     1.0720 </r>
       <r>    -8.7534    12.4241     2.0142 </r>
       <r>    -8.6778    17.5007     3.3392 </r>
       <r>    -8.6021    37.7318     6.1948 </r>
       <r>    -8.5264    71.2343    11.6062 </r>
       <r>    -8.4507    57.8476    16.0000 </r>
       <r>    -8.3750     0.0000    16.0000 </r>
       <r>    -8.2994     0.0000    16.0000 </r>
       <r>    -8.2237     0.0000    16.0000 </r>
       <r>    -8.1480     0.0000    16.0000 </r>
       <r>    -8.0723     0.0000    16.0000 </r>
       <r>    -7.9966     0.0000    16.0000 </r>
       <r>    -7.9210     0.0000    16.0000 </r>
       <r>    -7.8453     0.0000    16.0000 </r>
       <r>    -7.7696     0.0000    16.0000 </r>
       <r>    -7.6939     0.0000    16.0000 </r>
       <r>    -7.6182     0.0000    16.0000 </r>
       <r>    -7.5426     0.0000    16.0000 </r>
       <r>    -7.4669     0.0000    16.0000 </r>
       <r>    -7.3912     0.0000    16.0000 </r>
       <r>    -7.3155     0.0000    16.0000 </r>
       <r>    -7.2398     0.0000    16.0000 </r>
       <r>    -7.1642     0.0000    16.0000 </r>
       <r>    -7.0885     0.0000    16.0000 </r>
       <r>    -7.0128     0.0000    16.0000 </r>
       <r>    -6.9371     0.0000    16.0000 </r>
       <r>    -6.8614     0.0000    16.0000 </r>
       <r>    -6.7858     0.0000    16.0000 </r>
       <r>    -6.7101     0.0000    16.0000 </r>
       <r>    -6.6344     0.0000    16.0000 </r>
       <r>    -6.5587     0.0000    16.0000 </r>
       <r>    -6.4830     0.0000    16.0000 </r>
       <r>    -6.4074     0.0000    16.0000 </r>
       <r>    -6.3317     0.0000    16.0000 </r>
       <r>    -6.2560     0.0000    16.0000 </r>
       <r>    -6.1803     0.0000    16.0000 </r>
       <r>    -6.1046     0.0000    16.0000 </r>
       <r>    -6.0290    16.7172    17.2652 </r>
       <r>    -5.9533   246.5523    36.0371 </r>
       <r>    -5.8776   179.7328    49.9897 </r>
       <r>    -5.8019   162.5346    62.3059 </r>
       <r>    -5.7262   267.0090    82.8129 </r>
       <r>    -5.6506    12.9957    83.7978 </r>
       <r>    -5.5749    16.6050    85.0696 </r>
       <r>    -5.4992    20.9468    86.6548 </r>
       <r>    -5.4235    29.8553    88.9846 </r>
       <r>    -5.3478    38.0184    91.9496 </r>
       <r>    -5.2722    38.6427    94.9305 </r>
       <r>    -5.1965    13.6438    96.0000 </r>
       <r>    -5.1208     0.0000    96.0000 </r>
       <r>    -5.0451     0.0000    96.0000 </r>
       <r>    -4.9694     0.0000    96.0000 </r>
       <r>    -4.8938     0.0000    96.0000 </r>
       <r>    -4.8181     0.0000    96.0000 </r>
       <r>    -4.7424     0.0000    96.0000 </r>
       <r>    -4.6667     0.0000    96.0000 </r>
       <r>    -4.5910     0.0000    96.0000 </r>
       <r>    -4.5154     0.0000    96.0000 </r>
       <r>    -4.4397     0.0000    96.0000 </r>
       <r>    -4.3640     0.0000    96.0000 </r>
       <r>    -4.2883     0.0000    96.0000 </r>
       <r>    -4.2126     0.0000    96.0000 </r>
       <r>    -4.1370     0.0000    96.0000 </r>
       <r>    -4.0613     0.0000    96.0000 </r>
       <r>    -3.9856     0.0000    96.0000 </r>
       <r>    -3.9099     0.0000    96.0000 </r>
       <r>    -3.8342     0.0000    96.0000 </r>
       <r>    -3.7586     0.0000    96.0000 </r>
       <r>    -3.6829     0.0000    96.0000 </r>
       <r>    -3.6072     0.0000    96.0000 </r>
       <r>    -3.5315     0.0000    96.0000 </r>
       <r>    -3.4558     0.0000    96.0000 </r>
       <r>    -3.3802     0.0000    96.0000 </r>
       <r>    -3.3045     0.0000    96.0000 </r>
       <r>    -3.2288     0.0000    96.0000 </r>
       <r>    -3.1531     0.0000    96.0000 </r>
       <r>    -3.0774     0.0000    96.0000 </r>
       <r>    -3.0018     0.0000    96.0000 </r>
       <r>    -2.9261     0.0000    96.0000 </r>
       <r>    -2.8504     0.0000    96.0000 </r>
       <r>    -2.7747     0.0000    96.0000 </r>
       <r>    -2.6990     0.0000    96.0000 </r>
       <r>    -2.6234     0.0000    96.0000 </r>
       <r>    -2.5477     0.0000    96.0000 </r>
       <r>    -2.4720     0.0000    96.0000 </r>
       <r>    -2.3963     0.0000    96.0000 </r>
       <r>    -2.3206     0.0000    96.0000 </r>
       <r>    -2.2449     0.4892    96.0370 </r>
       <r>    -2.1693     4.5518    96.3815 </r>
       <r>    -2.0936     9.8674    97.1283 </r>
       <r>    -2.0179    32.7530    99.6072 </r>
       <r>    -1.9422    36.5589   102.3846 </r>
       <r>    -1.8665    18.7162   103.8032 </r>
       <r>    -1.7909     9.5542   104.5291 </r>
       <r>    -1.7152    10.9943   105.3611 </r>
       <r>    -1.6395     6.1267   105.8248 </r>
       <r>    -1.5638    11.1598   106.6992 </r>
       <r>    -1.4881     4.3421   107.0278 </r>
       <r>    -1.4125     5.1396   107.4167 </r>
       <r>    -1.3368     4.5763   107.7686 </r>
       <r>    -1.2611     6.6059   108.2685 </r>
       <r>    -1.1854     2.9348   108.4906 </r>
       <r>    -1.1097     5.8719   108.9352 </r>
       <r>    -1.0341     0.0071   108.9357 </r>
       <r>    -0.9584     5.4069   109.3449 </r>
       <r>    -0.8827     2.0403   109.5340 </r>
       <r>    -0.8070     0.7262   109.6019 </r>
       <r>    -0.7313     0.1738   109.6150 </r>
       <r>    -0.6557     8.6350   110.2685 </r>
       <r>    -0.5800     0.0291   110.2707 </r>
       <r>    -0.5043     2.8801   110.4887 </r>
       <r>    -0.4286     1.7352   110.6200 </r>
       <r>    -0.3529     3.0205   110.8490 </r>
       <r>    -0.2773    14.7575   111.9658 </r>
       <r>    -0.2016    15.1873   113.1201 </r>
       <r>    -0.1259    19.0086   114.5608 </r>
       <r>    -0.0502     8.9820   115.2446 </r>
       <r>     0.0255     9.1368   115.9364 </r>
       <r>     0.1011    18.4600   117.3558 </r>
       <r>     0.1768    14.6786   118.5123 </r>
       <r>     0.2525    12.6756   119.4716 </r>
       <r>     0.3282     8.3657   120.1524 </r>
       <r>     0.4039    23.6108   121.9410 </r>
       <r>     0.4795    13.0637   122.9406 </r>
       <r>     0.5552    19.5426   124.4207 </r>
       <r>     0.6309    20.9182   126.0685 </r>
       <r>     0.7066    18.5264   127.4723 </r>
       <r>     0.7823    16.4931   128.7205 </r>
       <r>     0.8579     9.9939   129.5644 </r>
       <r>     0.9336    25.2099   131.4723 </r>
       <r>     1.0093     6.0575   132.0314 </r>
       <r>     1.0850    23.5671   133.8150 </r>
       <r>     1.1607    12.6416   134.8197 </r>
       <r>     1.2363    15.9065   136.0235 </r>
       <r>     1.3120    13.4647   137.0468 </r>
       <r>     1.3877    16.4447   138.2913 </r>
       <r>     1.4634    23.5876   140.1146 </r>
       <r>     1.5391     3.0695   140.3796 </r>
       <r>     1.6147    10.5002   141.1743 </r>
       <r>     1.6904    10.4047   141.9648 </r>
       <r>     1.7661     1.9305   142.1183 </r>
       <r>     1.8418    10.7562   142.9422 </r>
       <r>     1.9175     3.8203   143.2315 </r>
       <r>     1.9931     4.8711   143.6001 </r>
       <r>     2.0688     1.4637   143.7130 </r>
       <r>     2.1445     3.3841   143.9691 </r>
       <r>     2.2202     0.3670   144.0000 </r>
       <r>     2.2959     0.0000   144.0000 </r>
       <r>     2.3715     0.0000   144.0000 </r>
       <r>     2.4472     0.0000   144.0000 </r>
       <r>     2.5229     0.0000   144.0000 </r>
       <r>     2.5986     0.0000   144.0000 </r>
       <r>     2.6743     0.0000   144.0000 </r>
       <r>     2.7499     0.0000   144.0000 </r>
       <r>     2.8256     0.0000   144.0000 </r>
       <r>     2.9013     0.1223   144.0093 </r>
       <r>     2.9770     0.0000   144.0093 </r>
       <r>     3.0527     0.0000   144.0093 </r>
       <r>     3.1283     0.0000   144.0093 </r>
       <r>     3.2040     0.0000   144.0093 </r>
       <r>     3.2797     0.0000   144.0093 </r>
       <r>     3.3554     0.0000   144.0093 </r>
       <r>     3.4311     0.0005   144.0093 </r>
       <r>     3.5067     0.9782   144.0833 </r>
       <r>     3.5824     0.0000   144.0833 </r>
       <r>     3.6581     0.1396   144.0939 </r>
       <r>     3.7338     0.5945   144.1389 </r>
       <r>     3.8095     0.0000   144.1389 </r>
       <r>     3.8851     0.0000   144.1389 </r>
       <r>     3.9608     2.6645   144.3405 </r>
       <r>     4.0365     1.6259   144.4682 </r>
       <r>     4.1122     1.4566   144.5784 </r>
       <r>     4.1879     2.5037   144.7728 </r>
       <r>     4.2635     0.0001   144.8056 </r>
       <r>     4.3392     9.2921   145.5088 </r>
       <r>     4.4149     6.3787   146.0425 </r>
       <r>     4.4906     7.1470   146.5833 </r>
       <r>     4.5663     0.0000   146.5833 </r>
       <r>     4.6419     3.6411   146.8589 </r>
       <r>     4.7176     1.1011   146.9444 </r>
       <r>     4.7933     5.6533   147.3723 </r>
       <r>     4.8690    17.6593   148.7337 </r>
       <r>     4.9447    18.5804   150.1885 </r>
       <r>     5.0203    13.9096   151.2743 </r>
       <r>     5.0960    16.7708   152.5437 </r>
       <r>     5.1717     9.7836   153.3357 </r>
       <r>     5.2474    10.2052   154.1601 </r>
       <r>     5.3231    38.5973   157.1002 </r>
       <r>     5.3987    15.9179   158.3052 </r>
       <r>     5.4744     6.7384   158.8155 </r>
       <r>     5.5501     8.6706   159.4717 </r>
       <r>     5.6258     0.0000   159.4722 </r>
       <r>     5.7015     0.8361   159.5355 </r>
       <r>     5.7771     9.4092   160.2476 </r>
       <r>     5.8528    21.7008   161.8923 </r>
       <r>     5.9285     5.5841   162.3396 </r>
       <r>     6.0042    13.4704   163.3590 </r>
       <r>     6.0799     2.9642   163.6410 </r>
       <r>     6.1555     8.8209   164.3086 </r>
       <r>     6.2312     2.4940   164.5283 </r>
       <r>     6.3069     5.8656   164.9722 </r>
       <r>     6.3826     0.0001   164.9722 </r>
       <r>     6.4583     7.3408   165.5278 </r>
       <r>     6.5339     0.7664   165.5858 </r>
       <r>     6.6096    10.7224   166.3973 </r>
       <r>     6.6853    29.9116   168.7098 </r>
       <r>     6.7610     7.9153   169.3750 </r>
       <r>     6.8367    21.4782   171.0006 </r>
       <r>     6.9123    19.3799   172.5312 </r>
       <r>     6.9880     7.8546   173.1295 </r>
       <r>     7.0637     8.3502   173.7617 </r>
       <r>     7.1394    15.1901   174.9445 </r>
       <r>     7.2151    14.4298   176.0366 </r>
       <r>     7.2907     8.8425   176.7307 </r>
       <r>     7.3664    14.7203   177.8507 </r>
       <r>     7.4421     9.4646   178.5813 </r>
       <r>     7.5178    17.4086   179.9000 </r>
       <r>     7.5935    20.9140   181.4849 </r>
       <r>     7.6691    15.2697   182.6927 </r>
       <r>     7.7448    21.1836   184.3063 </r>
       <r>     7.8205    15.0892   185.4482 </r>
       <r>     7.8962    20.6260   187.0717 </r>
       <r>     7.9719     9.9372   187.8379 </r>
       <r>     8.0475    14.2521   188.9165 </r>
       <r>     8.1232     7.9361   189.5266 </r>
       <r>     8.1989    23.8142   191.3288 </r>
       <r>     8.2746    15.6320   192.5257 </r>
       <r>     8.3503     2.3307   192.7391 </r>
       <r>     8.4260     9.0131   193.4212 </r>
       <r>     8.5016     6.9095   193.9441 </r>
       <r>     8.5773     5.8723   194.3889 </r>
       <r>     8.6530     4.0078   194.6922 </r>
       <r>     8.7287    11.7551   195.6113 </r>
       <r>     8.8044     9.6377   196.3407 </r>
       <r>     8.8800     9.7329   197.0773 </r>
       <r>     8.9557     9.0004   197.7863 </r>
       <r>     9.0314    13.6482   198.8192 </r>
       <r>     9.1071    23.3727   200.6272 </r>
       <r>     9.1828    14.4961   201.7504 </r>
       <r>     9.2584     5.8127   202.2177 </r>
       <r>     9.3341    12.4240   203.1667 </r>
       <r>     9.4098     3.5247   203.4334 </r>
       <r>     9.4855     6.4564   203.9258 </r>
       <r>     9.5612     5.5197   204.3436 </r>
       <r>     9.6368    15.8832   205.5460 </r>
       <r>     9.7125     1.3267   205.6774 </r>
       <r>     9.7882     6.0038   206.1317 </r>
       <r>     9.8639    21.6096   207.7671 </r>
       <r>     9.9396    14.6294   208.8743 </r>
       <r>    10.0152    12.2287   209.8075 </r>
       <r>    10.0909     8.2483   210.4641 </r>
       <r>    10.1666     7.4524   211.0630 </r>
       <r>    10.2423    13.7994   212.1145 </r>
       <r>    10.3180    18.4686   213.5122 </r>
       <r>    10.3936    26.6872   215.5320 </r>
       <r>    10.4693    10.0699   216.3165 </r>
       <r>    10.5450    11.4326   217.1817 </r>
       <r>    10.6207    16.6579   218.4558 </r>
       <r>    10.6964    11.6061   219.3987 </r>
       <r>    10.7720    22.8653   221.1293 </r>
       <r>    10.8477    14.9367   222.2794 </r>
       <r>    10.9234    10.5132   223.1252 </r>
       <r>    10.9991     0.0003   223.1297 </r>
       <r>    11.0748     2.9360   223.3518 </r>
       <r>    11.1504     3.6357   223.6270 </r>
       <r>    11.2261     0.0016   223.6483 </r>
       <r>    11.3018     3.1794   223.8889 </r>
       <r>    11.3775     0.0000   223.8889 </r>
       <r>    11.4532     0.0000   223.8889 </r>
       <r>    11.5288     0.5509   223.9306 </r>
       <r>    11.6045     0.0001   223.9445 </r>
       <r>    11.6802     0.7340   224.0000 </r>
       <r>    11.7559     0.0000   224.0000 </r>
       <r>    11.8316     0.0000   224.0000 </r>
       <r>    11.9072     0.0000   224.0000 </r>
       <r>    11.9829     0.0000   224.0000 </r>
       <r>    12.0586     0.0000   224.0000 </r>
       <r>    12.1343     0.0000   224.0000 </r>
       <r>    12.2100     0.0000   224.0000 </r>
       <r>    12.2856     0.0000   224.0000 </r>
       <r>    12.3613     0.0000   224.0000 </r>
       <r>    12.4370     0.0000   224.0000 </r>
       <r>    12.5127     0.0000   224.0000 </r>
       <r>    12.5884     0.0000   224.0000 </r>
       <r>    12.6640     0.0000   224.0000 </r>
      </set>
     </set>
    </array>
   </total>
  </dos>
 </calculation>
 <structure name="finalpos" >
  <crystal>
   <varray name="basis" >
    <v>      -0.00000340       6.48458704       6.48458880 </v>
    <v>       6.48459448       0.00000454       6.48459324 </v>
    <v>       6.48460158       6.48459856       0.00000634 </v>
   </varray>
   <i name="volume">    545.35350099 </i>
   <varray name="rec_basis" >
    <v>      -0.07710592       0.07710588       0.07710588 </v>
    <v>       0.07710579      -0.07710590       0.07710592 </v>
    <v>       0.07710573       0.07710586      -0.07710580 </v>
   </varray>
  </crystal>
  <varray name="positions" >
   <v>       0.00000278       0.00000316       0.99999723 </v>
   <v>       0.50000278       0.00000316       0.99999723 </v>
   <v>       0.00000278       0.50000316       0.99999723 </v>
   <v>       0.50000278       0.50000316       0.99999723 </v>
   <v>       0.00000278       0.00000316       0.49999723 </v>
   <v>       0.50000278       0.00000316       0.49999723 </v>
   <v>       0.00000278       0.50000316       0.49999723 </v>
   <v>       0.50000278       0.50000316       0.49999723 </v>
   <v>       0.37390677       0.37499684       0.37500277 </v>
   <v>       0.87499722       0.37499684       0.37500277 </v>
   <v>       0.37499722       0.87499684       0.37500277 </v>
   <v>       0.87499722       0.87499684       0.37500277 </v>
   <v>       0.37499722       0.37499684       0.87500277 </v>
   <v>       0.87499722       0.37499684       0.87500277 </v>
   <v>       0.37499722       0.87499684       0.87500277 </v>
   <v>       0.87499722       0.87499684       0.87500277 </v>
  </varray>
 </structure>
</modeling>
